============================== echo of input deck ==============================
echo
title CF3_ESP_Calculation
start CF3

geometry
	C	-1.81231958686      	-0.806223678853     	1.43772946144
	N	-2.10316466204      	0.128594971946      	0.272695544056
	C	-2.26244593796      	-0.692008437376     	-0.998923976156
	C	-0.991574723604     	1.18714982212       	0.116963068565
	C	0.400193755904      	0.674340151638      	-0.164129613724
	C	1.282091983         	0.383030593299      	0.887815725916
	C	2.56837402119       	-0.0976044183765    	0.627031234387
	C	3.00289814569       	-0.298053674218     	-0.690418943375
	C	4.40385172642       	-0.794955471925     	-0.97246811304
	F	5.29603696293       	0.22350042616       	-1.08964537354
	F	4.88036260209       	-1.60984472085      	0.00787716390207
	F	4.48586907185       	-1.50994317923      	-2.12756488149
	C	2.13072905276       	0.0134815645377     	-1.74252908455
	C	0.844201349357      	0.494174353615      	-1.4830652673
	C	-3.41462561762      	0.859833556139      	0.549240883065
	H	-1.64608779413      	-0.20247908961      	2.33461801135
	H	-0.930642642477     	-1.40796870054      	1.20277660343
	H	-2.67710585921      	-1.46234680128      	1.57765505731
	H	-1.36510476792      	-1.29767363639      	-1.14924080703
	H	-3.13108957351      	-1.34718791536      	-0.880060624624
	H	-2.41688704897      	-0.0069148567265    	-1.83757817481
	H	-1.30744429114      	1.86114215522       	-0.690067515555
	H	-0.987702514275     	1.78005339915       	1.04096911841
	H	0.989014698471      	0.537702933186      	1.92515257239
	H	3.24076665971       	-0.311352790631     	1.45893219109
	H	2.45875879731       	-0.112855793699     	-2.77514371282
	H	0.203248676481      	0.737144192359      	-2.32925104879
	H	-3.30138249324      	1.43824456041       	1.47101843655
	H	-3.6277899525       	1.52108993679       	-0.295956788726
	H	-4.21103003771      	0.1179305485        	0.661573358722
end

charge 1

basis
	* library 6-31G*
end

dft
	xc b3lyp
	maxiter 1000
end
task dft optimize

esp
	recalculate
	range 0.2
	probe 0.1
	spacing 0.025
end
task esp
================================================================================

         Total DFT energy =     -782.248508888514
@ Step       Energy      Delta E   Gmax     Grms     Xrms     Xmax   Walltime
@ ---- ---------------- -------- -------- -------- -------- -------- --------
@    0    -782.24850889  0.0D+00  0.01066  0.00250  0.00000  0.00000    172.4
         Total DFT energy =     -782.251391575696
         Total DFT energy =   -782.251391575696
@    1    -782.25139158 -2.9D-03  0.00120  0.00021  0.03742  0.11633    303.6
         Total DFT energy =     -782.251452964280
         Total DFT energy =     -782.251474098046
@    2    -782.25147410 -8.3D-05  0.00051  0.00011  0.01255  0.04833    476.8
         Total DFT energy =     -782.251460421612
         Total DFT energy =     -782.251518889812
@    3    -782.25151889 -4.5D-05  0.00052  0.00007  0.00914  0.03341    667.5
         Total DFT energy =     -782.251525113966
         Total DFT energy =   -782.251525113966
@    4    -782.25152511 -6.2D-06  0.00006  0.00002  0.00474  0.01936    770.1
         Total DFT energy =     -782.251526012918

                       DFT Final Molecular Orbital Analysis
                       ------------------------------------

 Vector    1  Occ=2.000000D+00  E=-2.481980D+01  Symmetry=a'

 Vector  176  Occ=0.000000D+00  E= 1.622395D+00  Symmetry=a'

 Vector  177  Occ=0.000000D+00  E= 1.654788D+00  Symmetry=a'

 Vector  178  Occ=0.000000D+00  E= 1.660222D+00  Symmetry=a'

 Vector  179  Occ=0.000000D+00  E= 1.663270D+00  Symmetry=a"

 Vector  180  Occ=0.000000D+00  E= 1.691756D+00  Symmetry=a'

 Vector  181  Occ=0.000000D+00  E= 1.710825D+00  Symmetry=a"

 Vector  182  Occ=0.000000D+00  E= 1.720378D+00  Symmetry=a'

 Vector  183  Occ=0.000000D+00  E= 1.748808D+00  Symmetry=a'

 Vector  184  Occ=0.000000D+00  E= 1.749494D+00  Symmetry=a"

 Vector  185  Occ=0.000000D+00  E= 1.762351D+00  Symmetry=a'

 Vector  186  Occ=0.000000D+00  E= 1.778410D+00  Symmetry=a'

 Vector  187  Occ=0.000000D+00  E= 1.794049D+00  Symmetry=a"

 Vector  188  Occ=0.000000D+00  E= 1.834382D+00  Symmetry=a"

 Vector  189  Occ=0.000000D+00  E= 1.862233D+00  Symmetry=a'

 Vector  190  Occ=0.000000D+00  E= 1.878711D+00  Symmetry=a'

 Vector  191  Occ=0.000000D+00  E= 1.882593D+00  Symmetry=a"

 Vector  192  Occ=0.000000D+00  E= 1.896092D+00  Symmetry=a'

 Vector  193  Occ=0.000000D+00  E= 1.897199D+00  Symmetry=a'

 Vector  194  Occ=0.000000D+00  E= 1.905903D+00  Symmetry=a"

 Vector  195  Occ=0.000000D+00  E= 1.910102D+00  Symmetry=a'

 Vector  196  Occ=0.000000D+00  E= 1.914404D+00  Symmetry=a"

 Vector  197  Occ=0.000000D+00  E= 1.956525D+00  Symmetry=a'

 Vector  198  Occ=0.000000D+00  E= 1.970609D+00  Symmetry=a"

 Vector  199  Occ=0.000000D+00  E= 1.973493D+00  Symmetry=a"

 Vector  200  Occ=0.000000D+00  E= 1.974580D+00  Symmetry=a'

 Vector  201  Occ=0.000000D+00  E= 1.996775D+00  Symmetry=a"

 Vector  202  Occ=0.000000D+00  E= 1.997658D+00  Symmetry=a'

 Vector  203  Occ=0.000000D+00  E= 2.012668D+00  Symmetry=a'

 Vector  204  Occ=0.000000D+00  E= 2.018075D+00  Symmetry=a"

 Vector  205  Occ=0.000000D+00  E= 2.033120D+00  Symmetry=a'

 Vector  206  Occ=0.000000D+00  E= 2.041926D+00  Symmetry=a"

 Vector  207  Occ=0.000000D+00  E= 2.047040D+00  Symmetry=a'

 Vector  208  Occ=0.000000D+00  E= 2.055506D+00  Symmetry=a'

 Vector  209  Occ=0.000000D+00  E= 2.059123D+00  Symmetry=a"

 Vector  210  Occ=0.000000D+00  E= 2.066577D+00  Symmetry=a'

 Vector  211  Occ=0.000000D+00  E= 2.070477D+00  Symmetry=a"

 Vector  212  Occ=0.000000D+00  E= 2.142118D+00  Symmetry=a"

 Vector  213  Occ=0.000000D+00  E= 2.166703D+00  Symmetry=a"

 Vector  214  Occ=0.000000D+00  E= 2.167356D+00  Symmetry=a'

 Vector  215  Occ=0.000000D+00  E= 2.209064D+00  Symmetry=a'

 Vector  216  Occ=0.000000D+00  E= 2.229935D+00  Symmetry=a"

 Vector  217  Occ=0.000000D+00  E= 2.238868D+00  Symmetry=a'

 Vector  218  Occ=0.000000D+00  E= 2.295699D+00  Symmetry=a'

 Vector  219  Occ=0.000000D+00  E= 2.367438D+00  Symmetry=a"

 Vector  220  Occ=0.000000D+00  E= 2.374098D+00  Symmetry=a'

 Vector  221  Occ=0.000000D+00  E= 2.397110D+00  Symmetry=a'

 Vector  222  Occ=0.000000D+00  E= 2.441228D+00  Symmetry=a'

 Vector  223  Occ=0.000000D+00  E= 2.493934D+00  Symmetry=a"

 Vector  224  Occ=0.000000D+00  E= 2.503427D+00  Symmetry=a'

 Vector  225  Occ=0.000000D+00  E= 2.514202D+00  Symmetry=a"

 Vector  226  Occ=0.000000D+00  E= 2.519947D+00  Symmetry=a"

 Vector  227  Occ=0.000000D+00  E= 2.529692D+00  Symmetry=a'

 Vector  228  Occ=0.000000D+00  E= 2.549208D+00  Symmetry=a'

 Vector  229  Occ=0.000000D+00  E= 2.634508D+00  Symmetry=a'

 Vector  230  Occ=0.000000D+00  E= 2.647221D+00  Symmetry=a"

 Vector  231  Occ=0.000000D+00  E= 2.672659D+00  Symmetry=a'

 Vector  232  Occ=0.000000D+00  E= 2.677176D+00  Symmetry=a"

 Vector  233  Occ=0.000000D+00  E= 2.744397D+00  Symmetry=a'

 Vector  234  Occ=0.000000D+00  E= 2.802765D+00  Symmetry=a"

 Vector  235  Occ=0.000000D+00  E= 2.815868D+00  Symmetry=a'

 Vector  236  Occ=0.000000D+00  E= 2.941455D+00  Symmetry=a'

 Vector  237  Occ=0.000000D+00  E= 2.950702D+00  Symmetry=a'

 Vector  238  Occ=0.000000D+00  E= 2.982255D+00  Symmetry=a"

 Vector  239  Occ=0.000000D+00  E= 2.994653D+00  Symmetry=a"

 Vector  240  Occ=0.000000D+00  E= 3.270736D+00  Symmetry=a'

 Vector  241  Occ=0.000000D+00  E= 3.869562D+00  Symmetry=a'

 Vector  242  Occ=0.000000D+00  E= 3.954060D+00  Symmetry=a'

 Vector  243  Occ=0.000000D+00  E= 3.984313D+00  Symmetry=a"

 Vector  244  Occ=0.000000D+00  E= 4.007969D+00  Symmetry=a'

 Vector  245  Occ=0.000000D+00  E= 4.096636D+00  Symmetry=a'

 Vector  246  Occ=0.000000D+00  E= 4.107486D+00  Symmetry=a"

 Vector  247  Occ=0.000000D+00  E= 4.133292D+00  Symmetry=a'

 Vector  248  Occ=0.000000D+00  E= 4.186638D+00  Symmetry=a'

 Vector  249  Occ=0.000000D+00  E= 4.199326D+00  Symmetry=a"

 Vector  250  Occ=0.000000D+00  E= 4.277717D+00  Symmetry=a'

 Vector  251  Occ=0.000000D+00  E= 4.368740D+00  Symmetry=a"

 Vector  252  Occ=0.000000D+00  E= 4.388925D+00  Symmetry=a'

 Vector  253  Occ=0.000000D+00  E= 4.477003D+00  Symmetry=a'

 Vector  254  Occ=0.000000D+00  E= 4.643007D+00  Symmetry=a'

 Vector  255  Occ=0.000000D+00  E= 5.373827D+00  Symmetry=a'

     Multipole analysis of the density
     ---------------------------------

     L   x y z        total         alpha         beta         nuclear
     -   - - -        -----         -----         ----         -------
     0   0 0 0      1.000000    -57.000000    -57.000000    115.000000

     1   1 0 0     -0.222876     -0.384809     -0.384809      0.546742
     1   0 1 0     -5.923431     -2.126163     -2.126163     -1.671105
     1   0 0 1     -0.000000     -0.000000     -0.000000      0.000000

     2   2 0 0    -60.402421   -153.472870   -153.472870    246.543320
     2   1 1 0      2.291823    -12.111703    -12.111703     26.515230
     2   1 0 1     -0.000000     -0.000000     -0.000000     -0.000000
     2   0 2 0    -23.272967  -1843.233250  -1843.233250   3663.193532
     2   0 1 1     -0.000000     -0.000000     -0.000000     -0.000000

         Total DFT energy =   -782.251526012918
@    5    -782.25152601 -9.0D-07  0.00005  0.00001  0.00046  0.00158    863.2
@    5    -782.25152601 -9.0D-07  0.00005  0.00001  0.00046  0.00158    863.2

 Output coordinates in angstroms (scale by  1.889725989 to convert to a.u.)

  No.       Tag          Charge          X              Y              Z
 ---- ---------------- ---------- -------------- -------------- --------------
    1 C                    6.0000    -1.05360191    -3.13825915     1.22774359
    2 N                    7.0000    -0.20545242    -3.34156290     0.00000000
    3 C                    6.0000    -1.05360191    -3.13825915    -1.22774359
    4 C                    6.0000     1.00797934    -2.36924461     0.00000000
    5 C                    6.0000     0.66855223    -0.90379995     0.00000000
    6 C                    6.0000     0.53904588    -0.20309300     1.20937426
    7 C                    6.0000     0.25674472     1.16070502     1.21116023
    8 C                    6.0000     0.11117010     1.84112752     0.00000000
    9 C                    6.0000    -0.13820198     3.33423873     0.00000000
   10 F                    9.0000     1.02515562     4.01206940     0.00000000
   11 F                    9.0000    -0.83236073     3.71088264     1.09067479
   12 F                    9.0000    -0.83236073     3.71088264    -1.09067479
   13 C                    6.0000     0.25674472     1.16070502    -1.21116023
   14 C                    6.0000     0.53904588    -0.20309300    -1.20937426
   15 C                    6.0000     0.33183976    -4.75009966     0.00000000
   16 H                    1.0000    -0.43977881    -3.30713452     2.11390925
   17 H                    1.0000    -1.44103000    -2.12020423     1.22791614
   18 H                    1.0000    -1.87674385    -3.85408040     1.20415821
   19 H                    1.0000    -1.44103000    -2.12020423    -1.22791614
   20 H                    1.0000    -1.87674385    -3.85408040    -1.20415821
   21 H                    1.0000    -0.43977881    -3.30713452    -2.11390925
   22 H                    1.0000     1.58378941    -2.64603096    -0.88660383
   23 H                    1.0000     1.58378941    -2.64603096     0.88660383
   24 H                    1.0000     0.67687910    -0.71715762     2.15733466
   25 H                    1.0000     0.15487071     1.69616221     2.14881432
   26 H                    1.0000     0.15487071     1.69616221    -2.14881432
   27 H                    1.0000     0.67687910    -0.71715762    -2.15733466
   28 H                    1.0000     0.93981305    -4.89892832     0.89358565
   29 H                    1.0000     0.93981305    -4.89892832    -0.89358565
   30 H                    1.0000    -0.50631705    -5.44870146     0.00000000

 Total times  cpu:      897.8s     wall:      897.8s
