============================== echo of input deck ==============================
echo
title 365_ESP_Calculation
start 365

geometry
	C	-3.728988653349295  	0.13357351720352592 	-0.9094899869528122
	N	-2.207793353016725  	0.028260683332756203	-0.9040339935725489
	C	-1.7624292978523155 	-0.731201709827766  	-2.1440827313342172
	C	-1.6213990180817144 	1.4337641223713136  	-0.9413254552007194
	C	-1.7851359869338705 	-0.7160036818200061 	0.3807969826697592
	C	-0.30677980661293025	-0.9356295095319355 	0.5770653929397758
	C	0.47942912204411114 	0.04395773290332886 	1.2028646789309234
	C	1.863789562446691   	-0.12379344110454778	1.3609888775308026
	C	2.6830813293810976  	0.9558998080877945  	2.0254841525172815
	O	2.42888430996964    	2.2122393737780457  	1.392285070315432
	C	3.353788528816403   	2.482897247088962   	0.34508538521875476
	C	2.459047271699901   	-1.3063658546308143 	0.9117093331429957
	C	1.6861960875322994  	-2.2978322689524466 	0.3075631978354454
	C	0.3126393902943145  	-2.1151765460144483 	0.13980183972147409
	H	-4.041498833495298  	0.6916800474985726  	-0.02183377265667274
	H	-4.147050338256501  	-0.8774119503115219 	-0.8946767909347738
	H	-4.039562998721968  	0.6591229917860697  	-1.8175958416770157
	H	-2.144439399087346  	-1.7542970354016632 	-2.081027298611758
	H	-0.6706147512518341 	-0.7250065122781193 	-2.196406375683276
	H	-2.1745788891345024 	-0.22684616793413964	-3.0236717350767153
	H	-1.8906404606516891 	1.94756069515355    	-0.013993650545716536
	H	-2.0455686276812566 	1.96018411491472    	-1.8021359508678134
	H	-0.5363185241040619 	1.367917038543569   	-1.0538133485480274
	H	-2.30616038269231   	-1.6822770938324327 	0.37139761976844127
	H	-2.1912336977843707 	-0.14533448311533592	1.2262246930000045
	H	0.027168955667469318	0.9631842885263534  	1.575357357217782
	H	3.7546710861019927  	0.7229492682765368  	2.0299733975322343
	H	2.3630792206344426  	1.0382405446753706  	3.0702951793166275
	H	4.369490566627163   	2.5628967098853246  	0.7442705318439377
	H	3.0838605629806533  	3.4392020115378457  	-0.11094935789388218
	H	3.3092006705747328  	1.7055721095421585  	-0.4236383091917135
	H	3.5287756700166972  	-1.4681562601750173 	1.0338612535057494
	H	2.1597774771345697  	-3.218579673246425  	-0.02855707470893275
	H	-0.26268679324219296	-2.9119185274290693 	-0.327793269552651
end

charge 1

basis
	* library 6-31G*
end

driver
	maxiter 100
	xyz 365
end

dft
	xc b3lyp
	maxiter 2000
end
task dft optimize

esp
	recalculate
	range 0.2
	probe 0.1
	spacing 0.025
end
task esp
================================================================================

         Total DFT energy =     -599.049109071877
@ Step       Energy      Delta E   Gmax     Grms     Xrms     Xmax   Walltime
@ ---- ---------------- -------- -------- -------- -------- -------- --------
@    0    -599.04910907  0.0D+00  0.00797  0.00175  0.00000  0.00000    397.9
         Total DFT energy =     -599.051990975213
         Total DFT energy =   -599.051990975213
@    1    -599.05199098 -2.9D-03  0.00108  0.00019  0.05760  0.27695    704.3
         Total DFT energy =     -599.052422513019
         Total DFT energy =     -599.052564751922
@    2    -599.05256475 -5.7D-04  0.00174  0.00042  0.23420  0.90682   1189.6
         Total DFT energy =     -599.052757706908
         Total DFT energy =     -599.052767878087
@    3    -599.05276788 -2.0D-04  0.00041  0.00009  0.06931  0.25353   1686.0
         Total DFT energy =     -599.052796437852
         Total DFT energy =   -599.052796437852
@    4    -599.05279644 -2.9D-05  0.00019  0.00003  0.05745  0.23123   1966.5
         Total DFT energy =     -599.052797429987
         Total DFT energy =   -599.052797429987
@    5    -599.05279743 -9.9D-07  0.00005  0.00001  0.00399  0.01525   2196.1
         Total DFT energy =     -599.052797563531
         Total DFT energy =   -599.052797563531
@    6    -599.05279756 -1.3D-07  0.00002  0.00000  0.00109  0.00406   2427.5
         Total DFT energy =     -599.052798075884
         Total DFT energy =   -599.052798075884
@    7    -599.05279808 -5.1D-07  0.00005  0.00001  0.00194  0.00667   2654.1
         Total DFT energy =     -599.052798145581
         Total DFT energy =   -599.052798145581
@    8    -599.05279815 -7.0D-08  0.00004  0.00001  0.00080  0.00291   2863.8
         Total DFT energy =     -599.052798075009
         Total DFT energy =   -599.052798075009
@    9    -599.05279808  7.1D-08  0.00004  0.00001  0.00109  0.00360   3060.4
         Total DFT energy =     -599.052798119784
         Total DFT energy =   -599.052798119784
@   10    -599.05279812 -4.5D-08  0.00007  0.00001  0.00090  0.00361   3272.0
         Total DFT energy =     -599.052798258090
         Total DFT energy =   -599.052798258090
@   11    -599.05279826 -1.4D-07  0.00005  0.00001  0.00058  0.00187   3453.1
         Total DFT energy =     -599.052798155126

                       DFT Final Molecular Orbital Analysis
                       ------------------------------------

 Vector    1  Occ=2.000000D+00  E=-1.925005D+01

 Vector  171  Occ=0.000000D+00  E= 1.428057D+00

 Vector  172  Occ=0.000000D+00  E= 1.521010D+00

 Vector  173  Occ=0.000000D+00  E= 1.541060D+00

 Vector  174  Occ=0.000000D+00  E= 1.557794D+00

 Vector  175  Occ=0.000000D+00  E= 1.591533D+00

 Vector  176  Occ=0.000000D+00  E= 1.625008D+00

 Vector  177  Occ=0.000000D+00  E= 1.637280D+00

 Vector  178  Occ=0.000000D+00  E= 1.637999D+00

 Vector  179  Occ=0.000000D+00  E= 1.663952D+00

 Vector  180  Occ=0.000000D+00  E= 1.678884D+00

 Vector  181  Occ=0.000000D+00  E= 1.702727D+00

 Vector  182  Occ=0.000000D+00  E= 1.706391D+00

 Vector  183  Occ=0.000000D+00  E= 1.725411D+00

 Vector  184  Occ=0.000000D+00  E= 1.730509D+00

 Vector  185  Occ=0.000000D+00  E= 1.746337D+00

 Vector  186  Occ=0.000000D+00  E= 1.775012D+00

 Vector  187  Occ=0.000000D+00  E= 1.797221D+00

 Vector  188  Occ=0.000000D+00  E= 1.807287D+00

 Vector  189  Occ=0.000000D+00  E= 1.833209D+00

 Vector  190  Occ=0.000000D+00  E= 1.880125D+00

 Vector  191  Occ=0.000000D+00  E= 1.889792D+00

 Vector  192  Occ=0.000000D+00  E= 1.919001D+00

 Vector  193  Occ=0.000000D+00  E= 1.922904D+00

 Vector  194  Occ=0.000000D+00  E= 1.926474D+00

 Vector  195  Occ=0.000000D+00  E= 1.951871D+00

 Vector  196  Occ=0.000000D+00  E= 1.965086D+00

 Vector  197  Occ=0.000000D+00  E= 1.973824D+00

 Vector  198  Occ=0.000000D+00  E= 1.997852D+00

 Vector  199  Occ=0.000000D+00  E= 2.011454D+00

 Vector  200  Occ=0.000000D+00  E= 2.021094D+00

 Vector  201  Occ=0.000000D+00  E= 2.028773D+00

 Vector  202  Occ=0.000000D+00  E= 2.048424D+00

 Vector  203  Occ=0.000000D+00  E= 2.056831D+00

 Vector  204  Occ=0.000000D+00  E= 2.063551D+00

 Vector  205  Occ=0.000000D+00  E= 2.066958D+00

 Vector  206  Occ=0.000000D+00  E= 2.074540D+00

 Vector  207  Occ=0.000000D+00  E= 2.077899D+00

 Vector  208  Occ=0.000000D+00  E= 2.081072D+00

 Vector  209  Occ=0.000000D+00  E= 2.102881D+00

 Vector  210  Occ=0.000000D+00  E= 2.136248D+00

 Vector  211  Occ=0.000000D+00  E= 2.171148D+00

 Vector  212  Occ=0.000000D+00  E= 2.181170D+00

 Vector  213  Occ=0.000000D+00  E= 2.195948D+00

 Vector  214  Occ=0.000000D+00  E= 2.213321D+00

 Vector  215  Occ=0.000000D+00  E= 2.234405D+00

 Vector  216  Occ=0.000000D+00  E= 2.260960D+00

 Vector  217  Occ=0.000000D+00  E= 2.342170D+00

 Vector  218  Occ=0.000000D+00  E= 2.371707D+00

 Vector  219  Occ=0.000000D+00  E= 2.384902D+00

 Vector  220  Occ=0.000000D+00  E= 2.399273D+00

 Vector  221  Occ=0.000000D+00  E= 2.439434D+00

 Vector  222  Occ=0.000000D+00  E= 2.490677D+00

 Vector  223  Occ=0.000000D+00  E= 2.507217D+00

 Vector  224  Occ=0.000000D+00  E= 2.524527D+00

 Vector  225  Occ=0.000000D+00  E= 2.536989D+00

 Vector  226  Occ=0.000000D+00  E= 2.538543D+00

 Vector  227  Occ=0.000000D+00  E= 2.561021D+00

 Vector  228  Occ=0.000000D+00  E= 2.622082D+00

 Vector  229  Occ=0.000000D+00  E= 2.651197D+00

 Vector  230  Occ=0.000000D+00  E= 2.673228D+00

 Vector  231  Occ=0.000000D+00  E= 2.706348D+00

 Vector  232  Occ=0.000000D+00  E= 2.728897D+00

 Vector  233  Occ=0.000000D+00  E= 2.820437D+00

 Vector  234  Occ=0.000000D+00  E= 2.837032D+00

 Vector  235  Occ=0.000000D+00  E= 2.971176D+00

 Vector  236  Occ=0.000000D+00  E= 3.281736D+00

 Vector  237  Occ=0.000000D+00  E= 3.844302D+00

 Vector  238  Occ=0.000000D+00  E= 3.881570D+00

 Vector  239  Occ=0.000000D+00  E= 3.976454D+00

 Vector  240  Occ=0.000000D+00  E= 4.021468D+00

 Vector  241  Occ=0.000000D+00  E= 4.034279D+00

 Vector  242  Occ=0.000000D+00  E= 4.107978D+00

 Vector  243  Occ=0.000000D+00  E= 4.118004D+00

 Vector  244  Occ=0.000000D+00  E= 4.151581D+00

 Vector  245  Occ=0.000000D+00  E= 4.168124D+00

 Vector  246  Occ=0.000000D+00  E= 4.186390D+00

 Vector  247  Occ=0.000000D+00  E= 4.262594D+00

 Vector  248  Occ=0.000000D+00  E= 4.291852D+00

 Vector  249  Occ=0.000000D+00  E= 4.343476D+00

 Vector  250  Occ=0.000000D+00  E= 4.603398D+00

     Multipole analysis of the density
     ---------------------------------

     L   x y z        total         alpha         beta         nuclear
     -   - - -        -----         -----         ----         -------
     0   0 0 0      1.000000    -53.000000    -53.000000    107.000000

     1   1 0 0      0.382319      1.733871      1.733871     -3.085422
     1   0 1 0     -3.352974     -3.650812     -3.650812      3.948650
     1   0 0 1      0.663262      1.263217      1.263217     -1.863173

     2   2 0 0    -51.932005   -446.541219   -446.541219    841.150434
     2   1 1 0     -6.686461      6.015422      6.015422    -18.717305
     2   1 0 1      0.355454      8.292381      8.292381    -16.229308
     2   0 2 0    -28.251940  -1159.161417  -1159.161417   2290.070894
     2   0 1 1      1.559763     39.397917     39.397917    -77.236070

         Total DFT energy =   -599.052798155126
@   12    -599.05279816  1.0D-07  0.00003  0.00001  0.00032  0.00092   3644.6
@   12    -599.05279816  1.0D-07  0.00003  0.00001  0.00032  0.00092   3644.6

 Output coordinates in angstroms (scale by  1.889725989 to convert to a.u.)

  No.       Tag          Charge          X              Y              Z
 ---- ---------------- ---------- -------------- -------------- --------------
    1 C                    6.0000     0.99814369    -3.83788878    -0.51181051
    2 N                    7.0000     0.54207893    -2.54949791     0.12096058
    3 C                    6.0000    -0.27351189    -2.86315765     1.34625454
    4 C                    6.0000     1.74823934    -1.74236532     0.52002187
    5 C                    6.0000    -0.31402478    -1.77739283    -0.92672464
    6 C                    6.0000    -0.86154469    -0.45362951    -0.47291364
    7 C                    6.0000    -0.13344117     0.72357519    -0.69595507
    8 C                    6.0000    -0.64459004     1.97048528    -0.32364809
    9 C                    6.0000     0.14044215     3.23378651    -0.64667684
   10 O                    8.0000     1.54071688     3.04379990    -0.61015181
   11 C                    6.0000     2.08933360     3.11013013     0.69715927
   12 C                    6.0000    -1.90494986     2.02766627     0.28152515
   13 C                    6.0000    -2.65033656     0.86577112     0.49138001
   14 C                    6.0000    -2.13597215    -0.37258406     0.11178653
   15 H                    1.0000     1.59313005    -3.60808118    -1.39695346
   16 H                    1.0000     0.12289388    -4.42499485    -0.79386008
   17 H                    1.0000     1.60196675    -4.39300257     0.20789807
   18 H                    1.0000    -1.13113917    -3.47110807     1.05367173
   19 H                    1.0000    -0.61332071    -1.93027990     1.79431872
   20 H                    1.0000     0.35132697    -3.41668747     2.04904181
   21 H                    1.0000     2.34527427    -1.53536867    -0.36946221
   22 H                    1.0000     2.33414673    -2.32204490     1.23513956
   23 H                    1.0000     1.41595154    -0.80797564     0.97010696
   24 H                    1.0000    -1.11326856    -2.47394288    -1.19241954
   25 H                    1.0000     0.34790286    -1.66280177    -1.78865572
   26 H                    1.0000     0.84006072     0.69281715    -1.17888976
   27 H                    1.0000    -0.16859947     4.05131482     0.02222547
   28 H                    1.0000    -0.09121295     3.54755960    -1.67185633
   29 H                    1.0000     1.89123555     4.08571059     1.16346871
   30 H                    1.0000     3.16876733     2.97920209     0.59355267
   31 H                    1.0000     1.69051901     2.32221649     1.35540247
   32 H                    1.0000    -2.31557862     2.98960984     0.57844723
   33 H                    1.0000    -3.63554912     0.92697201     0.94347594
   34 H                    1.0000    -2.73425578    -1.26987108     0.25149777

 Total times  cpu:     3688.6s     wall:     3688.6s
