============================== echo of input deck ==============================
echo
title H_ESP_Calculation
start H

geometry
	C	-2.94710971894      	0.226708601242      	-0.540723597772
	N	-1.56597338163      	0.0815458617579     	0.0905977715883
	C	-1.36057303028      	1.21578488661       	1.08380459489
	C	-0.516375886017     	0.137063410968      	-1.03981832435
	C	0.928988144079      	0.0108326159448     	-0.628604037866
	C	1.68641561026       	1.15092869983       	-0.314842651555
	C	3.02105770203       	1.03114731222       	0.075770065473
	C	3.61639660776       	-0.22542099161      	0.151000603882
	C	2.88206276178       	-1.36392103872      	-0.170903867323
	C	1.54718165752       	-1.24827610625      	-0.561943831529
	C	-1.50346183816      	-1.24670013416      	0.830192134571
	H	-2.99173122656      	1.18842661037       	-1.06051452194
	H	-3.69958132033      	0.188660624497      	0.252782775037
	H	-3.09539027615      	-0.597815181886     	-1.24446253232
	H	-2.18995514653      	1.20289400973       	1.79790313486
	H	-0.418158496818     	1.06132303907       	1.61541907594
	H	-1.34947052622      	2.16146788517       	0.534146812652
	H	-0.771587581003     	-0.662411716787     	-1.74766075817
	H	-0.670035851484     	1.08751211004       	-1.56742616345
	H	1.25517657423       	2.14798288685       	-0.3806091954
	H	3.60461187263       	1.91857861982       	0.31346576691
	H	4.65906506952       	-0.316631291997     	0.449069557322
	H	3.35735503088       	-2.34197508887      	-0.125337662112
	H	1.00545432639       	-2.15512330423      	-0.823798662195
	H	-0.555901264605     	-1.31234191693      	1.37096766047
	H	-1.59417077967      	-2.05593028015      	0.0997939152292
	H	-2.33428903268      	-1.28431012253      	1.54173193716
end

charge 1

basis
	* library 6-31G*
end

dft
	xc b3lyp
	maxiter 1000
end
task dft optimize

esp
	recalculate
	range 0.2
	probe 0.1
	spacing 0.025
end
task esp
================================================================================

         Total DFT energy =     -445.219996604189
@ Step       Energy      Delta E   Gmax     Grms     Xrms     Xmax   Walltime
@ ---- ---------------- -------- -------- -------- -------- -------- --------
@    0    -445.21999660  0.0D+00  0.00793  0.00156  0.00000  0.00000    115.5
         Total DFT energy =     -445.220579463129
         Total DFT energy =     -445.221011148561
@    1    -445.22101115 -1.0D-03  0.00334  0.00070  0.02509  0.10903    255.1
         Total DFT energy =     -445.220828492422
         Total DFT energy =     -445.221532316560
@    2    -445.22153232 -5.2D-04  0.00067  0.00017  0.01446  0.05272    394.8
         Total DFT energy =     -445.221562725146
         Total DFT energy =     -445.221596509519
@    3    -445.22159651 -6.4D-05  0.00043  0.00012  0.01209  0.03715    513.0
         Total DFT energy =     -445.221642770052
         Total DFT energy =     -445.221653998500
@    4    -445.22165400 -5.7D-05  0.00027  0.00006  0.01361  0.06125    623.1
         Total DFT energy =     -445.221657767962
         Total DFT energy =   -445.221657767962
@    5    -445.22165777 -3.8D-06  0.00008  0.00002  0.00403  0.01246    684.8
         Total DFT energy =     -445.221653939408
         Total DFT energy =   -445.221653939408
@    6    -445.22165394  3.8D-06  0.00015  0.00004  0.00225  0.00762    748.2
         Total DFT energy =     -445.221658057340
         Total DFT energy =   -445.221658057340
@    7    -445.22165806 -4.1D-06  0.00003  0.00000  0.00209  0.00759    809.7
         Total DFT energy =     -445.221658677452

                       DFT Final Molecular Orbital Analysis
                       ------------------------------------

 Vector    1  Occ=2.000000D+00  E=-1.462576D+01  Symmetry=a'

 Vector  118  Occ=0.000000D+00  E= 9.061954D-01  Symmetry=a'

 Vector  119  Occ=0.000000D+00  E= 9.734415D-01  Symmetry=a"

 Vector  120  Occ=0.000000D+00  E= 9.848802D-01  Symmetry=a'

 Vector  121  Occ=0.000000D+00  E= 1.020839D+00  Symmetry=a"

 Vector  122  Occ=0.000000D+00  E= 1.053794D+00  Symmetry=a'

 Vector  123  Occ=0.000000D+00  E= 1.094486D+00  Symmetry=a"

 Vector  124  Occ=0.000000D+00  E= 1.134698D+00  Symmetry=a'

 Vector  125  Occ=0.000000D+00  E= 1.142283D+00  Symmetry=a"

 Vector  126  Occ=0.000000D+00  E= 1.175150D+00  Symmetry=a'

 Vector  127  Occ=0.000000D+00  E= 1.270898D+00  Symmetry=a"

 Vector  128  Occ=0.000000D+00  E= 1.295418D+00  Symmetry=a'

 Vector  129  Occ=0.000000D+00  E= 1.309565D+00  Symmetry=a'

 Vector  130  Occ=0.000000D+00  E= 1.318375D+00  Symmetry=a"

 Vector  131  Occ=0.000000D+00  E= 1.340114D+00  Symmetry=a'

 Vector  132  Occ=0.000000D+00  E= 1.348473D+00  Symmetry=a"

 Vector  133  Occ=0.000000D+00  E= 1.349783D+00  Symmetry=a'

 Vector  134  Occ=0.000000D+00  E= 1.366326D+00  Symmetry=a'

 Vector  135  Occ=0.000000D+00  E= 1.368767D+00  Symmetry=a"

 Vector  136  Occ=0.000000D+00  E= 1.381981D+00  Symmetry=a"

 Vector  137  Occ=0.000000D+00  E= 1.434060D+00  Symmetry=a'

 Vector  138  Occ=0.000000D+00  E= 1.538281D+00  Symmetry=a"

 Vector  139  Occ=0.000000D+00  E= 1.615621D+00  Symmetry=a"

 Vector  140  Occ=0.000000D+00  E= 1.621271D+00  Symmetry=a'

 Vector  141  Occ=0.000000D+00  E= 1.630842D+00  Symmetry=a'

 Vector  142  Occ=0.000000D+00  E= 1.668762D+00  Symmetry=a'

 Vector  143  Occ=0.000000D+00  E= 1.683818D+00  Symmetry=a"

 Vector  144  Occ=0.000000D+00  E= 1.688642D+00  Symmetry=a'

 Vector  145  Occ=0.000000D+00  E= 1.719592D+00  Symmetry=a"

 Vector  146  Occ=0.000000D+00  E= 1.729778D+00  Symmetry=a'

 Vector  147  Occ=0.000000D+00  E= 1.765303D+00  Symmetry=a'

 Vector  148  Occ=0.000000D+00  E= 1.779270D+00  Symmetry=a'

 Vector  149  Occ=0.000000D+00  E= 1.797675D+00  Symmetry=a'

 Vector  150  Occ=0.000000D+00  E= 1.842100D+00  Symmetry=a"

 Vector  151  Occ=0.000000D+00  E= 1.883349D+00  Symmetry=a'

 Vector  152  Occ=0.000000D+00  E= 1.898908D+00  Symmetry=a"

 Vector  153  Occ=0.000000D+00  E= 1.916294D+00  Symmetry=a'

 Vector  154  Occ=0.000000D+00  E= 1.920072D+00  Symmetry=a"

 Vector  155  Occ=0.000000D+00  E= 1.929983D+00  Symmetry=a'

 Vector  156  Occ=0.000000D+00  E= 1.964778D+00  Symmetry=a'

 Vector  157  Occ=0.000000D+00  E= 2.007230D+00  Symmetry=a"

 Vector  158  Occ=0.000000D+00  E= 2.015588D+00  Symmetry=a"

 Vector  159  Occ=0.000000D+00  E= 2.015844D+00  Symmetry=a'

 Vector  160  Occ=0.000000D+00  E= 2.031028D+00  Symmetry=a'

 Vector  161  Occ=0.000000D+00  E= 2.037897D+00  Symmetry=a"

 Vector  162  Occ=0.000000D+00  E= 2.054542D+00  Symmetry=a'

 Vector  163  Occ=0.000000D+00  E= 2.063626D+00  Symmetry=a"

 Vector  164  Occ=0.000000D+00  E= 2.071008D+00  Symmetry=a'

 Vector  165  Occ=0.000000D+00  E= 2.073307D+00  Symmetry=a"

 Vector  166  Occ=0.000000D+00  E= 2.099725D+00  Symmetry=a'

 Vector  167  Occ=0.000000D+00  E= 2.166056D+00  Symmetry=a"

 Vector  168  Occ=0.000000D+00  E= 2.180979D+00  Symmetry=a'

 Vector  169  Occ=0.000000D+00  E= 2.197255D+00  Symmetry=a"

 Vector  170  Occ=0.000000D+00  E= 2.231534D+00  Symmetry=a'

 Vector  171  Occ=0.000000D+00  E= 2.254826D+00  Symmetry=a'

 Vector  172  Occ=0.000000D+00  E= 2.373475D+00  Symmetry=a"

 Vector  173  Occ=0.000000D+00  E= 2.379480D+00  Symmetry=a'

 Vector  174  Occ=0.000000D+00  E= 2.454972D+00  Symmetry=a'

 Vector  175  Occ=0.000000D+00  E= 2.456991D+00  Symmetry=a"

 Vector  176  Occ=0.000000D+00  E= 2.519635D+00  Symmetry=a"

 Vector  177  Occ=0.000000D+00  E= 2.525294D+00  Symmetry=a'

 Vector  178  Occ=0.000000D+00  E= 2.530547D+00  Symmetry=a"

 Vector  179  Occ=0.000000D+00  E= 2.551562D+00  Symmetry=a'

 Vector  180  Occ=0.000000D+00  E= 2.596092D+00  Symmetry=a'

 Vector  181  Occ=0.000000D+00  E= 2.613917D+00  Symmetry=a"

 Vector  182  Occ=0.000000D+00  E= 2.618764D+00  Symmetry=a'

 Vector  183  Occ=0.000000D+00  E= 2.640664D+00  Symmetry=a"

 Vector  184  Occ=0.000000D+00  E= 2.774448D+00  Symmetry=a'

 Vector  185  Occ=0.000000D+00  E= 2.916147D+00  Symmetry=a"

 Vector  186  Occ=0.000000D+00  E= 3.274749D+00  Symmetry=a'

 Vector  187  Occ=0.000000D+00  E= 3.877701D+00  Symmetry=a'

 Vector  188  Occ=0.000000D+00  E= 3.965316D+00  Symmetry=a'

 Vector  189  Occ=0.000000D+00  E= 3.996938D+00  Symmetry=a"

 Vector  190  Occ=0.000000D+00  E= 4.028090D+00  Symmetry=a'

 Vector  191  Occ=0.000000D+00  E= 4.105467D+00  Symmetry=a'

 Vector  192  Occ=0.000000D+00  E= 4.114439D+00  Symmetry=a"

 Vector  193  Occ=0.000000D+00  E= 4.153708D+00  Symmetry=a'

 Vector  194  Occ=0.000000D+00  E= 4.213751D+00  Symmetry=a"

 Vector  195  Occ=0.000000D+00  E= 4.268690D+00  Symmetry=a'

 Vector  196  Occ=0.000000D+00  E= 4.293478D+00  Symmetry=a'

 Vector  197  Occ=0.000000D+00  E= 4.571354D+00  Symmetry=a'

     Multipole analysis of the density
     ---------------------------------

     L   x y z        total         alpha         beta         nuclear
     -   - - -        -----         -----         ----         -------
     0   0 0 0      1.000000    -41.000000    -41.000000     83.000000

     1   1 0 0      0.241093     -0.210116     -0.210116      0.661325
     1   0 1 0      2.331412      1.223928      1.223928     -0.116443
     1   0 0 1      0.000000      0.000000      0.000000     -0.000000

     2   2 0 0    -46.201432    -98.761712    -98.761712    151.321992
     2   1 1 0     -1.396078      4.128880      4.128880     -9.653838
     2   1 0 1      0.000000      0.000000      0.000000     -0.000000
     2   0 2 0    -23.691942   -730.677477   -730.677477   1437.663013
     2   0 1 1      0.000000      0.000000      0.000000      0.000000

         Total DFT energy =   -445.221658677452
@    8    -445.22165868 -6.2D-07  0.00002  0.00000  0.00020  0.00051    864.7
@    8    -445.22165868 -6.2D-07  0.00002  0.00000  0.00020  0.00051    864.7

 Output coordinates in angstroms (scale by  1.889725989 to convert to a.u.)

  No.       Tag          Charge          X              Y              Z
 ---- ---------------- ---------- -------------- -------------- --------------
    1 C                    6.0000    -0.61749024     3.24360483     0.00000000
    2 N                    7.0000     0.07465396     1.90571886     0.00000000
    3 C                    6.0000     0.93955721     1.79722908     1.22707079
    4 C                    6.0000    -1.02248474     0.79882747     0.00000000
    5 C                    6.0000    -0.51742446    -0.61598684     0.00000000
    6 C                    6.0000    -0.30850654    -1.29685010     1.21035084
    7 C                    6.0000     0.13081038    -2.62000400     1.20991481
    8 C                    6.0000     0.35614756    -3.28032272     0.00000000
    9 C                    6.0000     0.13081038    -2.62000400    -1.20991481
   10 C                    6.0000    -0.30850654    -1.29685010    -1.21035084
   11 C                    6.0000     0.93955721     1.79722908    -1.22707079
   12 H                    1.0000    -1.23873148     3.32260337     0.89339980
   13 H                    1.0000     0.13546155     4.03330818     0.00000000
   14 H                    1.0000    -1.23873148     3.32260337    -0.89339980
   15 H                    1.0000     1.67964301     2.59871259     1.20408639
   16 H                    1.0000     1.43314560     0.82629264     1.22802556
   17 H                    1.0000     0.31058762     1.89806223     2.11301308
   18 H                    1.0000    -1.62447646     1.01155557    -0.88702756
   19 H                    1.0000    -1.62447646     1.01155557     0.88702756
   20 H                    1.0000    -0.51024153    -0.80030484     2.15672809
   21 H                    1.0000     0.28310332    -3.13844933     2.15147248
   22 H                    1.0000     0.69103711    -4.31313990     0.00000000
   23 H                    1.0000     0.28310332    -3.13844933    -2.15147248
   24 H                    1.0000    -0.51024153    -0.80030484    -2.15672809
   25 H                    1.0000     1.43314560     0.82629264    -1.22802556
   26 H                    1.0000     0.31058762     1.89806223    -2.11301308
   27 H                    1.0000     1.67964301     2.59871259    -1.20408639

 Total times  cpu:      889.2s     wall:      889.2s
