============================== echo of input deck ==============================
echo
title 1_ESP_Calculation
start 1

geometry
	C	-1.9446183747120243 	-0.8329759215652542 	0.041421734585929
	N	-1.4460400850974167 	0.5129134405511218  	0.5465409502203131
	C	-2.482324629267097  	1.0914262271202217  	1.5049842195861842
	C	-1.287738348838005  	1.4609842293804738  	-0.6329700926135834
	C	-0.11727086526640645	0.35884414086401567 	1.3167429378082576
	C	1.0510615430854682  	-0.20232587024487958	0.5459030425380698
	C	1.2888861863603072  	-1.5859074204773442 	0.5127174856231451
	C	2.364652301213475   	-2.1041723383568565 	-0.21000186490918452
	C	3.2183489827703275  	-1.248387241875957  	-0.9012946480060214
	C	3.0035496133900197  	0.1269890111369856  	-0.8659342954244272
	C	1.9288836720710612  	0.6491067042434182  	-0.14435146335758417
	H	-1.999526625057846  	-1.5234298005082199 	0.8880734115596668
	H	-2.9379043136831946 	-0.6905050009201368 	-0.39568472199427496
	H	-1.2587730603958491 	-1.2059104457654624 	-0.7235332436423617
	H	-2.125628763400638  	2.064502853222152   	1.8556468133092572
	H	-2.602123181948173  	0.40050548567507593 	2.344836458127501
	H	-3.429258906052087  	1.2048796978248508  	0.9685524738175075
	H	-0.8745118819340889 	2.4053487955226447  	-0.2669313023513931
	H	-0.6255896101037626 	1.0053029336654313  	-1.373598170835282
	H	-2.274430561865702  	1.626483667326629   	-1.0768467911293507
	H	-0.3278374851000228 	-0.27762821849315616	2.1861671474176014
	H	0.13896856624648646 	1.3525399970651875  	1.706926310362727
	H	0.6502513190700706  	-2.279323849529251  	1.0565232917846452
	H	2.5468135102696983  	-3.1770393826690966 	-0.2285342760317451
	H	4.060702145002699   	-1.653460280207776  	-1.4586810453730612
	H	3.6833404490005615  	0.7919429054289047  	-1.3953586289953774
	H	1.7981184042418694  	1.7292956815869098  	-0.12197037607592169
end

charge 1

basis
	* library 6-31G*
end

driver
	maxiter 100
	xyz 1
end

dft
	xc b3lyp
	maxiter 2000
end
task dft optimize

esp
	recalculate
	range 0.2
	probe 0.1
	spacing 0.025
end
task esp
================================================================================

         Total DFT energy =     -445.219996624169
@ Step       Energy      Delta E   Gmax     Grms     Xrms     Xmax   Walltime
@ ---- ---------------- -------- -------- -------- -------- -------- --------
@    0    -445.21999662  0.0D+00  0.00793  0.00156  0.00000  0.00000    117.7
         Total DFT energy =     -445.221066557035
         Total DFT energy =     -445.221086252255
@    1    -445.22108625 -1.1D-03  0.00565  0.00058  0.03927  0.09410    259.3
         Total DFT energy =     -445.221302852542
         Total DFT energy =     -445.221331190399
@    2    -445.22133119 -2.4D-04  0.00190  0.00032  0.02618  0.05704    380.8
         Total DFT energy =     -445.221415527279
         Total DFT energy =     -445.221424778385
@    3    -445.22142478 -9.4D-05  0.00046  0.00016  0.01260  0.03369    494.4
         Total DFT energy =     -445.221460690037
         Total DFT energy =     -445.221491969877
@    4    -445.22149197 -6.7D-05  0.00149  0.00021  0.01127  0.03727    610.9
         Total DFT energy =     -445.221530436982
         Total DFT energy =     -445.221575481192
@    5    -445.22157548 -8.4D-05  0.00124  0.00022  0.01446  0.05182    723.9
         Total DFT energy =     -445.221614217893
         Total DFT energy =     -445.221630906667
@    6    -445.22163091 -5.5D-05  0.00074  0.00013  0.01242  0.05314    851.4
         Total DFT energy =     -445.221642720574
         Total DFT energy =     -445.221648165280
@    7    -445.22164817 -1.7D-05  0.00019  0.00007  0.00444  0.00980    948.0
         Total DFT energy =     -445.221653653901
         Total DFT energy =     -445.221655800103
@    8    -445.22165580 -7.6D-06  0.00023  0.00004  0.00449  0.01207   1044.6
         Total DFT energy =     -445.221657245416

                       DFT Final Molecular Orbital Analysis
                       ------------------------------------

 Vector    1  Occ=2.000000D+00  E=-1.462560D+01  Symmetry=a'

 Vector  118  Occ=0.000000D+00  E= 9.061513D-01  Symmetry=a'

 Vector  119  Occ=0.000000D+00  E= 9.732892D-01  Symmetry=a"

 Vector  120  Occ=0.000000D+00  E= 9.848662D-01  Symmetry=a'

 Vector  121  Occ=0.000000D+00  E= 1.020773D+00  Symmetry=a"

 Vector  122  Occ=0.000000D+00  E= 1.053744D+00  Symmetry=a'

 Vector  123  Occ=0.000000D+00  E= 1.093891D+00  Symmetry=a"

 Vector  124  Occ=0.000000D+00  E= 1.134516D+00  Symmetry=a'

 Vector  125  Occ=0.000000D+00  E= 1.142582D+00  Symmetry=a"

 Vector  126  Occ=0.000000D+00  E= 1.175456D+00  Symmetry=a'

 Vector  127  Occ=0.000000D+00  E= 1.270759D+00  Symmetry=a"

 Vector  128  Occ=0.000000D+00  E= 1.295584D+00  Symmetry=a'

 Vector  129  Occ=0.000000D+00  E= 1.309958D+00  Symmetry=a'

 Vector  130  Occ=0.000000D+00  E= 1.318646D+00  Symmetry=a"

 Vector  131  Occ=0.000000D+00  E= 1.340263D+00  Symmetry=a'

 Vector  132  Occ=0.000000D+00  E= 1.348646D+00  Symmetry=a"

 Vector  133  Occ=0.000000D+00  E= 1.349975D+00  Symmetry=a'

 Vector  134  Occ=0.000000D+00  E= 1.366379D+00  Symmetry=a'

 Vector  135  Occ=0.000000D+00  E= 1.368617D+00  Symmetry=a"

 Vector  136  Occ=0.000000D+00  E= 1.381980D+00  Symmetry=a"

 Vector  137  Occ=0.000000D+00  E= 1.433688D+00  Symmetry=a'

 Vector  138  Occ=0.000000D+00  E= 1.538351D+00  Symmetry=a"

 Vector  139  Occ=0.000000D+00  E= 1.615483D+00  Symmetry=a"

 Vector  140  Occ=0.000000D+00  E= 1.621262D+00  Symmetry=a'

 Vector  141  Occ=0.000000D+00  E= 1.631180D+00  Symmetry=a'

 Vector  142  Occ=0.000000D+00  E= 1.668571D+00  Symmetry=a'

 Vector  143  Occ=0.000000D+00  E= 1.684015D+00  Symmetry=a"

 Vector  144  Occ=0.000000D+00  E= 1.688633D+00  Symmetry=a'

 Vector  145  Occ=0.000000D+00  E= 1.719157D+00  Symmetry=a"

 Vector  146  Occ=0.000000D+00  E= 1.729588D+00  Symmetry=a'

 Vector  147  Occ=0.000000D+00  E= 1.765177D+00  Symmetry=a'

 Vector  148  Occ=0.000000D+00  E= 1.779419D+00  Symmetry=a'

 Vector  149  Occ=0.000000D+00  E= 1.797489D+00  Symmetry=a'

 Vector  150  Occ=0.000000D+00  E= 1.842144D+00  Symmetry=a"

 Vector  151  Occ=0.000000D+00  E= 1.883623D+00  Symmetry=a'

 Vector  152  Occ=0.000000D+00  E= 1.898854D+00  Symmetry=a"

 Vector  153  Occ=0.000000D+00  E= 1.916617D+00  Symmetry=a'

 Vector  154  Occ=0.000000D+00  E= 1.920135D+00  Symmetry=a"

 Vector  155  Occ=0.000000D+00  E= 1.930125D+00  Symmetry=a'

 Vector  156  Occ=0.000000D+00  E= 1.964655D+00  Symmetry=a'

 Vector  157  Occ=0.000000D+00  E= 2.007008D+00  Symmetry=a"

 Vector  158  Occ=0.000000D+00  E= 2.015689D+00  Symmetry=a"

 Vector  159  Occ=0.000000D+00  E= 2.015808D+00  Symmetry=a'

 Vector  160  Occ=0.000000D+00  E= 2.031088D+00  Symmetry=a'

 Vector  161  Occ=0.000000D+00  E= 2.037884D+00  Symmetry=a"

 Vector  162  Occ=0.000000D+00  E= 2.054574D+00  Symmetry=a'

 Vector  163  Occ=0.000000D+00  E= 2.063512D+00  Symmetry=a"

 Vector  164  Occ=0.000000D+00  E= 2.070976D+00  Symmetry=a'

 Vector  165  Occ=0.000000D+00  E= 2.073261D+00  Symmetry=a"

 Vector  166  Occ=0.000000D+00  E= 2.099620D+00  Symmetry=a'

 Vector  167  Occ=0.000000D+00  E= 2.166633D+00  Symmetry=a"

 Vector  168  Occ=0.000000D+00  E= 2.181060D+00  Symmetry=a'

 Vector  169  Occ=0.000000D+00  E= 2.196867D+00  Symmetry=a"

 Vector  170  Occ=0.000000D+00  E= 2.230989D+00  Symmetry=a'

 Vector  171  Occ=0.000000D+00  E= 2.255139D+00  Symmetry=a'

 Vector  172  Occ=0.000000D+00  E= 2.373320D+00  Symmetry=a"

 Vector  173  Occ=0.000000D+00  E= 2.379532D+00  Symmetry=a'

 Vector  174  Occ=0.000000D+00  E= 2.454994D+00  Symmetry=a'

 Vector  175  Occ=0.000000D+00  E= 2.457044D+00  Symmetry=a"

 Vector  176  Occ=0.000000D+00  E= 2.519671D+00  Symmetry=a"

 Vector  177  Occ=0.000000D+00  E= 2.525384D+00  Symmetry=a'

 Vector  178  Occ=0.000000D+00  E= 2.530570D+00  Symmetry=a"

 Vector  179  Occ=0.000000D+00  E= 2.551713D+00  Symmetry=a'

 Vector  180  Occ=0.000000D+00  E= 2.596185D+00  Symmetry=a'

 Vector  181  Occ=0.000000D+00  E= 2.614245D+00  Symmetry=a"

 Vector  182  Occ=0.000000D+00  E= 2.618887D+00  Symmetry=a'

 Vector  183  Occ=0.000000D+00  E= 2.640750D+00  Symmetry=a"

 Vector  184  Occ=0.000000D+00  E= 2.774473D+00  Symmetry=a'

 Vector  185  Occ=0.000000D+00  E= 2.916241D+00  Symmetry=a"

 Vector  186  Occ=0.000000D+00  E= 3.274771D+00  Symmetry=a'

 Vector  187  Occ=0.000000D+00  E= 3.877676D+00  Symmetry=a'

 Vector  188  Occ=0.000000D+00  E= 3.965301D+00  Symmetry=a'

 Vector  189  Occ=0.000000D+00  E= 3.996872D+00  Symmetry=a"

 Vector  190  Occ=0.000000D+00  E= 4.028069D+00  Symmetry=a'

 Vector  191  Occ=0.000000D+00  E= 4.105443D+00  Symmetry=a'

 Vector  192  Occ=0.000000D+00  E= 4.114378D+00  Symmetry=a"

 Vector  193  Occ=0.000000D+00  E= 4.153651D+00  Symmetry=a'

 Vector  194  Occ=0.000000D+00  E= 4.213645D+00  Symmetry=a"

 Vector  195  Occ=0.000000D+00  E= 4.268743D+00  Symmetry=a'

 Vector  196  Occ=0.000000D+00  E= 4.293572D+00  Symmetry=a'

 Vector  197  Occ=0.000000D+00  E= 4.571314D+00  Symmetry=a'

     Multipole analysis of the density
     ---------------------------------

     L   x y z        total         alpha         beta         nuclear
     -   - - -        -----         -----         ----         -------
     0   0 0 0      1.000000    -41.000000    -41.000000     83.000000

     1   1 0 0     -0.240485      0.218878      0.218878     -0.678241
     1   0 1 0      2.332847      1.233602      1.233602     -0.134357
     1   0 0 1     -0.000000     -0.000000     -0.000000      0.000000

     2   2 0 0    -46.204411    -98.693821    -98.693821    151.183231
     2   1 1 0      1.386960     -4.005609     -4.005609      9.398179
     2   1 0 1     -0.000000     -0.000000     -0.000000     -0.000000
     2   0 2 0    -23.680909   -731.110287   -731.110287   1438.539665
     2   0 1 1     -0.000000     -0.000000     -0.000000      0.000000

         Total DFT energy =   -445.221657245416
@    9    -445.22165725 -1.4D-06  0.00009  0.00002  0.00056  0.00128   1099.8
@    9    -445.22165725 -1.4D-06  0.00009  0.00002  0.00056  0.00128   1099.8

 Output coordinates in angstroms (scale by  1.889725989 to convert to a.u.)

  No.       Tag          Charge          X              Y              Z
 ---- ---------------- ---------- -------------- -------------- --------------
    1 C                    6.0000    -0.93995723     1.79847182    -1.22699028
    2 N                    7.0000    -0.07430429     1.90589746     0.00000000
    3 C                    6.0000     0.61819050     3.24373177     0.00000000
    4 C                    6.0000    -0.93995723     1.79847182     1.22699028
    5 C                    6.0000     1.02137338     0.79824063     0.00000000
    6 C                    6.0000     0.51485720    -0.61585967     0.00000000
    7 C                    6.0000     0.30753899    -1.29731376    -1.21028224
    8 C                    6.0000    -0.12995747    -2.62099976    -1.20994890
    9 C                    6.0000    -0.35435662    -3.28166867     0.00000000
   10 C                    6.0000    -0.12995747    -2.62099976     1.20994890
   11 C                    6.0000     0.30753899    -1.29731376     1.21028224
   12 H                    1.0000    -0.31081494     1.89751297    -2.11304556
   13 H                    1.0000    -1.67844832     2.60140904    -1.20418988
   14 H                    1.0000    -1.43501916     0.82824057    -1.22740594
   15 H                    1.0000     1.23958756     3.32241076     0.89334206
   16 H                    1.0000     1.23958756     3.32241076    -0.89334206
   17 H                    1.0000    -0.13469262     4.03349615     0.00000000
   18 H                    1.0000    -0.31081494     1.89751297     2.11304556
   19 H                    1.0000    -1.43501916     0.82824057     1.22740594
   20 H                    1.0000    -1.67844832     2.60140904     1.20418988
   21 H                    1.0000     1.62395353     1.01083767    -0.88671966
   22 H                    1.0000     1.62395353     1.01083767     0.88671966
   23 H                    1.0000     0.50843587    -0.80037648    -2.15667571
   24 H                    1.0000    -0.28160767    -3.13983519    -2.15139228
   25 H                    1.0000    -0.68813924    -4.31483990     0.00000000
   26 H                    1.0000    -0.28160767    -3.13983519     2.15139228
   27 H                    1.0000     0.50843587    -0.80037648     2.15667571

 Total times  cpu:     1125.2s     wall:     1125.2s
