============================== echo of input deck ==============================
echo
title 242_ESP_Calculation
start 242

geometry
	Br	0.9176575325171155  	0.3535841861898727  	2.804464763929582
	C	-0.024327670088283123	-0.5836485841861847 	1.4074807350802738
	N	-0.014132785395541001	0.0013789319166205177	-0.004131642908398478
	C	1.351169442579906   	0.5369420059787791  	-0.43684778458397955
	Br	1.803374322913316   	2.3701563008252964  	-0.04320175373752403
	C	-1.1457990926513815 	1.0111901626770283  	-0.230101396589442
	Br	-1.558158412125757  	2.2980698078574444  	1.1412232446792767
	C	-0.3680054383913505 	-1.157882490689067  	-0.9665922523512905
	Br	0.9556257927662372  	-2.5595221581831895 	-1.1561447100164648
	H	-1.0648574815606557 	-0.7202205741057801 	1.7199001414403334
	H	0.4594613037405509  	-1.5623997946566708 	1.3865473722630284
	H	1.3996222375818572  	0.48561440198394956 	-1.5299583321668746
	H	2.134210891586203   	-0.09541884224422317	-0.007824173615328889
	H	-0.9531821644671058 	1.5460763591523845  	-1.166105784620856
	H	-2.078115452735755  	0.44568093800943426 	-0.34031349094987956
	H	-0.5246895712918718 	-0.7377096743149077 	-1.966317306897293
	H	-1.2898534549774405 	-1.6318909762108114 	-0.6120776289552367
end

charge 1

basis
	* library 6-31G*
end

dft
	xc b3lyp
	maxiter 1000
end
task dft optimize

esp
	recalculate
	range 0.2
	probe 0.1
	spacing 0.025
end
task esp
================================================================================

         Total DFT energy =   -10507.199493334223
@ Step       Energy      Delta E   Gmax     Grms     Xrms     Xmax   Walltime
@ ---- ---------------- -------- -------- -------- -------- -------- --------
@    0  -10507.19949333  0.0D+00  0.00515  0.00222  0.00000  0.00000    345.2
         Total DFT energy =   -10507.201613268600
         Total DFT energy =   -10507.201638442970
@    1  -10507.20163844 -2.1D-03  0.00384  0.00095  0.03777  0.10187    733.4
         Total DFT energy =   -10507.202005101202
         Total DFT energy =   -10507.202008776978
@    2  -10507.20200878 -3.7D-04  0.00192  0.00060  0.01882  0.04949   1088.5
         Total DFT energy =   -10507.202257684736
         Total DFT energy =   -10507.202286301441
@    3  -10507.20228630 -2.8D-04  0.00365  0.00080  0.02156  0.06569   1460.3
         Total DFT energy =   -10507.202501138274
         Total DFT energy =   -10507.202659521125
@    4  -10507.20265952 -3.7D-04  0.00178  0.00057  0.03487  0.09590   1835.9
         Total DFT energy =   -10507.202942448263
         Total DFT energy =   -10507.203001785567
@    5  -10507.20300179 -3.4D-04  0.00302  0.00071  0.05014  0.13831   2236.1
         Total DFT energy =   -10507.203124338506
         Total DFT energy =   -10507.203153026439
@    6  -10507.20315303 -1.5D-04  0.00062  0.00015  0.01023  0.02626   2587.9
         Total DFT energy =   -10507.203169147895
         Total DFT energy =   -10507.203169656466
@    7  -10507.20316966 -1.7D-05  0.00040  0.00010  0.00811  0.02486   2906.5
         Total DFT energy =   -10507.203173462620
         Total DFT energy = -10507.203173462620
@    8  -10507.20317346 -3.8D-06  0.00027  0.00006  0.00172  0.00440   3112.5
         Total DFT energy =   -10507.203176196675
         Total DFT energy = -10507.203176196675
@    9  -10507.20317620 -2.7D-06  0.00009  0.00002  0.00123  0.00448   3307.2
         Total DFT energy =   -10507.203177362730
         Total DFT energy = -10507.203177362730
@   10  -10507.20317736 -1.2D-06  0.00009  0.00002  0.00088  0.00326   3493.0
         Total DFT energy =   -10507.203178295566
         Total DFT energy = -10507.203178295566
@   11  -10507.20317830 -9.3D-07  0.00016  0.00003  0.00141  0.00527   3699.3
         Total DFT energy =   -10507.203179667460
         Total DFT energy = -10507.203179667460
@   12  -10507.20317967 -1.4D-06  0.00014  0.00003  0.00166  0.00578   3907.4
         Total DFT energy =   -10507.203180309803
         Total DFT energy = -10507.203180309803
@   13  -10507.20318031 -6.4D-07  0.00008  0.00002  0.00083  0.00293   4091.2
         Total DFT energy =   -10507.203180327782

                       DFT Final Molecular Orbital Analysis
                       ------------------------------------

 Vector    1  Occ=2.000000D+00  E=-4.830418D+02

 Vector  152  Occ=0.000000D+00  E= 7.096778D-01

 Vector  153  Occ=0.000000D+00  E= 7.168434D-01

 Vector  154  Occ=0.000000D+00  E= 7.289570D-01

 Vector  155  Occ=0.000000D+00  E= 7.367478D-01

 Vector  156  Occ=0.000000D+00  E= 7.460243D-01

 Vector  157  Occ=0.000000D+00  E= 7.641771D-01

 Vector  158  Occ=0.000000D+00  E= 8.110070D-01

 Vector  159  Occ=0.000000D+00  E= 8.248923D-01

 Vector  160  Occ=0.000000D+00  E= 8.354682D-01

 Vector  161  Occ=0.000000D+00  E= 8.597611D-01

 Vector  162  Occ=0.000000D+00  E= 8.876973D-01

 Vector  163  Occ=0.000000D+00  E= 9.131866D-01

 Vector  164  Occ=0.000000D+00  E= 9.483807D-01

 Vector  165  Occ=0.000000D+00  E= 9.676937D-01

 Vector  166  Occ=0.000000D+00  E= 1.173163D+00

 Vector  167  Occ=0.000000D+00  E= 1.189693D+00

 Vector  168  Occ=0.000000D+00  E= 1.208574D+00

 Vector  169  Occ=0.000000D+00  E= 1.254248D+00

 Vector  170  Occ=0.000000D+00  E= 1.280539D+00

 Vector  171  Occ=0.000000D+00  E= 1.493703D+00

 Vector  172  Occ=0.000000D+00  E= 1.521338D+00

 Vector  173  Occ=0.000000D+00  E= 1.541564D+00

 Vector  174  Occ=0.000000D+00  E= 1.547946D+00

 Vector  175  Occ=0.000000D+00  E= 1.577359D+00

 Vector  176  Occ=0.000000D+00  E= 1.592738D+00

 Vector  177  Occ=0.000000D+00  E= 1.608459D+00

 Vector  178  Occ=0.000000D+00  E= 1.635884D+00

 Vector  179  Occ=0.000000D+00  E= 1.669874D+00

 Vector  180  Occ=0.000000D+00  E= 1.677602D+00

 Vector  181  Occ=0.000000D+00  E= 1.728904D+00

 Vector  182  Occ=0.000000D+00  E= 1.840775D+00

 Vector  183  Occ=0.000000D+00  E= 1.842893D+00

 Vector  184  Occ=0.000000D+00  E= 1.858554D+00

 Vector  185  Occ=0.000000D+00  E= 1.892181D+00

 Vector  186  Occ=0.000000D+00  E= 1.930621D+00

 Vector  187  Occ=0.000000D+00  E= 1.960851D+00

 Vector  188  Occ=0.000000D+00  E= 2.002748D+00

 Vector  189  Occ=0.000000D+00  E= 2.029157D+00

 Vector  190  Occ=0.000000D+00  E= 2.039459D+00

 Vector  191  Occ=0.000000D+00  E= 2.075887D+00

 Vector  192  Occ=0.000000D+00  E= 2.079422D+00

 Vector  193  Occ=0.000000D+00  E= 2.101751D+00

 Vector  194  Occ=0.000000D+00  E= 2.244213D+00

 Vector  195  Occ=0.000000D+00  E= 2.246727D+00

 Vector  196  Occ=0.000000D+00  E= 2.488021D+00

 Vector  197  Occ=0.000000D+00  E= 2.491964D+00

 Vector  198  Occ=0.000000D+00  E= 2.509033D+00

 Vector  199  Occ=0.000000D+00  E= 3.775564D+00

 Vector  200  Occ=0.000000D+00  E= 3.996076D+00

 Vector  201  Occ=0.000000D+00  E= 4.032107D+00

 Vector  202  Occ=0.000000D+00  E= 4.037713D+00

 Vector  203  Occ=0.000000D+00  E= 4.212429D+00

 Vector  204  Occ=0.000000D+00  E= 4.546379D+00

 Vector  205  Occ=0.000000D+00  E= 4.553281D+00

 Vector  206  Occ=0.000000D+00  E= 4.555110D+00

 Vector  207  Occ=0.000000D+00  E= 4.558521D+00

 Vector  208  Occ=0.000000D+00  E= 4.568602D+00

 Vector  209  Occ=0.000000D+00  E= 4.569977D+00

 Vector  210  Occ=0.000000D+00  E= 4.575215D+00

 Vector  211  Occ=0.000000D+00  E= 4.577424D+00

 Vector  212  Occ=0.000000D+00  E= 4.609554D+00

 Vector  213  Occ=0.000000D+00  E= 4.620473D+00

 Vector  214  Occ=0.000000D+00  E= 4.626760D+00

 Vector  215  Occ=0.000000D+00  E= 4.631341D+00

 Vector  216  Occ=0.000000D+00  E= 4.634607D+00

 Vector  217  Occ=0.000000D+00  E= 4.653155D+00

 Vector  218  Occ=0.000000D+00  E= 4.654263D+00

 Vector  219  Occ=0.000000D+00  E= 4.654843D+00

 Vector  220  Occ=0.000000D+00  E= 4.804144D+00

 Vector  221  Occ=0.000000D+00  E= 4.817238D+00

 Vector  222  Occ=0.000000D+00  E= 4.825862D+00

 Vector  223  Occ=0.000000D+00  E= 4.835407D+00

 Vector  224  Occ=0.000000D+00  E= 6.121406D+00

 Vector  225  Occ=0.000000D+00  E= 6.143567D+00

 Vector  226  Occ=0.000000D+00  E= 6.151865D+00

 Vector  227  Occ=0.000000D+00  E= 6.153353D+00

 Vector  228  Occ=0.000000D+00  E= 9.018497D+01

 Vector  229  Occ=0.000000D+00  E= 9.022631D+01

 Vector  230  Occ=0.000000D+00  E= 9.027184D+01

 Vector  231  Occ=0.000000D+00  E= 9.027599D+01

     Multipole analysis of the density
     ---------------------------------

     L   x y z        total         alpha         beta         nuclear
     -   - - -        -----         -----         ----         -------
     0   0 0 0      1.000000    -89.000000    -89.000000    179.000000

     1   1 0 0      0.064677      0.572317      0.572317     -1.079956
     1   0 1 0     -1.411799      4.224599      4.224599     -9.860996
     1   0 0 1     -1.555175      0.753277      0.753277     -3.061729

     2   2 0 0    -69.588263   -518.595339   -518.595339    967.602415
     2   1 1 0     -0.209992     -0.293830     -0.293830      0.377669
     2   1 0 1     -0.114844      0.726983      0.726983     -1.568810
     2   0 2 0    -65.103144  -1276.209058  -1276.209058   2487.314972
     2   0 1 1      2.466966     19.127384     19.127384    -35.787802

         Total DFT energy = -10507.203180327782
@   14  -10507.20318033 -1.8D-08  0.00004  0.00001  0.00037  0.00101   4274.2
@   14  -10507.20318033 -1.8D-08  0.00004  0.00001  0.00037  0.00101   4274.2

 Output coordinates in angstroms (scale by  1.889725989 to convert to a.u.)

  No.       Tag          Charge          X              Y              Z
 ---- ---------------- ---------- -------------- -------------- --------------
    1 Br                  35.0000    -1.58376609     0.68961727     1.58885007
    2 C                    6.0000    -1.39448497    -0.41493116     0.01470770
    3 N                    7.0000     0.01967794    -0.54391015    -0.59344844
    4 C                    6.0000     1.15447487    -0.57422443     0.45688751
    5 Br                  35.0000     2.00175600     1.11081623     0.88960812
    6 C                    6.0000     0.28571532     0.47155505    -1.73488698
    7 Br                  35.0000    -0.47646967     2.23879907    -1.55569789
    8 C                    6.0000     0.04688899    -1.89878452    -1.33514862
    9 Br                  35.0000     0.01419293    -3.46801345    -0.19320886
   10 H                    1.0000    -2.03821411    -0.01962057    -0.76801050
   11 H                    1.0000    -1.69334807    -1.41880763     0.30414447
   12 H                    1.0000     1.93029790    -1.21995335     0.05366061
   13 H                    1.0000     0.73814063    -0.99546045     1.36686459
   14 H                    1.0000     1.36531266     0.56482931    -1.82787348
   15 H                    1.0000    -0.14714670     0.04336998    -2.63655880
   16 H                    1.0000     0.96218111    -1.92686257    -1.92460710
   17 H                    1.0000    -0.83198351    -1.93269766    -1.97733613

 Total times  cpu:     4290.7s     wall:     4290.7s
