============================== echo of input deck ==============================
echo
title 371_ESP_Calculation
start 371

geometry
	C	-3.430796659155599  	-0.9750104320914746 	-0.06406050325694174
	N	-2.1146155302937055 	-0.20510520396165835	-0.10397976476539358
	C	-2.139616260694402  	0.8633955126338623  	0.9790191701124124
	C	-1.9809319654610587 	0.46548762520512205 	-1.463258817711277
	C	-0.966712284947261  	-1.2092789266811697 	0.13420888256928423
	C	0.4329566460243072  	-0.6488842890651093 	0.13385010103453965
	C	1.023026789811892   	-0.19505877454994125	1.3230219459931476
	C	2.3151705741193345  	0.3356320843824826  	1.3190759460977197
	C	3.0417205267599936  	0.4265080189961542  	0.12814667816361788
	C	4.445086427599117   	0.960304756999167   	0.1323608404984273
	C	2.4693952482470967  	-0.05108675425780611	-1.0545591687050444
	C	1.1774332847694982  	-0.5822333025853654 	-1.0534079671132326
	H	-3.4132424886863584 	-1.7334811403193646 	-0.8524068437206569
	H	-4.2520640982666675 	-0.27171358693843267	-0.23200876577752416
	H	-3.528353643096687  	-1.4448367954381645 	0.9192102952803738
	H	-1.2457108566931008 	1.4860032095858144  	0.8900400898492071
	H	-2.1769469197712144 	0.36919735646668167 	1.9541806983278198
	H	-3.0315730543447996 	1.480783182679475   	0.8333328718537698
	H	-2.871267271243178  	1.0788130941569183  	-1.6338871966548572
	H	-1.905171856639697  	-0.31229576332210673	-2.2286863252367155
	H	-1.0927771830229915 	1.1025161064727143  	-1.4637191022897538
	H	-1.0570957094590536 	-1.9821834507012448 	-0.6402484673562014
	H	-1.1698671511266376 	-1.6994092260648432 	1.0953723432913833
	H	0.49498676209360276 	-0.2589459336658595 	2.272510171954235
	H	2.759479638609822   	0.6723731612844381  	2.2547881532949385
	H	4.57166174379784    	1.7186740591707923  	0.9121394700279705
	H	4.684496989462484   	1.4357312730962968  	-0.8246396625966639
	H	5.1542738092889255  	0.14629151156372358 	0.31104678804634767
	H	3.034946468032582   	-0.0183596732336182 	-1.9848509759474342
	H	0.7721080242860259  	-0.953827699817331  	-1.9925908852630054
end

charge 1

basis
	* library 6-31G*
end

driver
	maxiter 100
	xyz 371
end

dft
	xc b3lyp
	maxiter 2000
end
task dft optimize

esp
	recalculate
	range 0.2
	probe 0.1
	spacing 0.025
end
task esp
================================================================================

         Total DFT energy =     -484.540058190726
@ Step       Energy      Delta E   Gmax     Grms     Xrms     Xmax   Walltime
@ ---- ---------------- -------- -------- -------- -------- -------- --------
@    0    -484.54005819  0.0D+00  0.00803  0.00167  0.00000  0.00000    141.2
         Total DFT energy =     -484.541450544367
         Total DFT energy =     -484.541474273241
@    1    -484.54147427 -1.4D-03  0.00573  0.00061  0.03836  0.10782    312.0
         Total DFT energy =     -484.541735087783
         Total DFT energy =     -484.541779166631
@    2    -484.54177917 -3.0D-04  0.00201  0.00033  0.03039  0.07416    467.7
         Total DFT energy =     -484.541879596764
         Total DFT energy =     -484.541884805096
@    3    -484.54188481 -1.1D-04  0.00088  0.00017  0.01590  0.04518    604.9
         Total DFT energy =     -484.541922488963
         Total DFT energy =     -484.541953513309
@    4    -484.54195351 -6.9D-05  0.00152  0.00022  0.01200  0.03704    742.4
         Total DFT energy =     -484.541994284414
         Total DFT energy =     -484.542035420016
@    5    -484.54203542 -8.2D-05  0.00094  0.00020  0.01566  0.05430    878.1
         Total DFT energy =     -484.542073249010
         Total DFT energy =     -484.542093520985
@    6    -484.54209352 -5.8D-05  0.00058  0.00011  0.01095  0.04711    994.0
         Total DFT energy =     -484.542111152919
         Total DFT energy =     -484.542117521198
@    7    -484.54211752 -2.4D-05  0.00044  0.00010  0.00874  0.03185   1111.8
         Total DFT energy =     -484.542126671898
         Total DFT energy =     -484.542128674698
@    8    -484.54212867 -1.1D-05  0.00009  0.00003  0.00284  0.00897   1232.3
         Total DFT energy =     -484.542131850632
         Total DFT energy =   -484.542131850632
@    9    -484.54213185 -3.2D-06  0.00013  0.00003  0.00217  0.00593   1311.6
         Total DFT energy =     -484.542134230451
         Total DFT energy =   -484.542134230451
@   10    -484.54213423 -2.4D-06  0.00006  0.00002  0.00344  0.00933   1391.4
         Total DFT energy =     -484.542134818937
         Total DFT energy =   -484.542134818937
@   11    -484.54213482 -5.9D-07  0.00005  0.00001  0.00086  0.00213   1459.8
         Total DFT energy =     -484.542134871876
         Total DFT energy =   -484.542134871876
@   12    -484.54213487 -5.3D-08  0.00009  0.00002  0.00074  0.00256   1536.1
         Total DFT energy =     -484.542135094955

                       DFT Final Molecular Orbital Analysis
                       ------------------------------------

 Vector    1  Occ=2.000000D+00  E=-1.462192D+01  Symmetry=a'

 Vector  137  Occ=0.000000D+00  E= 1.147458D+00  Symmetry=a"

 Vector  138  Occ=0.000000D+00  E= 1.172892D+00  Symmetry=a'

 Vector  139  Occ=0.000000D+00  E= 1.264954D+00  Symmetry=a'

 Vector  140  Occ=0.000000D+00  E= 1.278553D+00  Symmetry=a"

 Vector  141  Occ=0.000000D+00  E= 1.280067D+00  Symmetry=a'

 Vector  142  Occ=0.000000D+00  E= 1.322503D+00  Symmetry=a"

 Vector  143  Occ=0.000000D+00  E= 1.322685D+00  Symmetry=a'

 Vector  144  Occ=0.000000D+00  E= 1.342292D+00  Symmetry=a'

 Vector  145  Occ=0.000000D+00  E= 1.349080D+00  Symmetry=a'

 Vector  146  Occ=0.000000D+00  E= 1.357961D+00  Symmetry=a"

 Vector  147  Occ=0.000000D+00  E= 1.363140D+00  Symmetry=a'

 Vector  148  Occ=0.000000D+00  E= 1.376422D+00  Symmetry=a"

 Vector  149  Occ=0.000000D+00  E= 1.390797D+00  Symmetry=a"

 Vector  150  Occ=0.000000D+00  E= 1.477936D+00  Symmetry=a'

 Vector  151  Occ=0.000000D+00  E= 1.541601D+00  Symmetry=a"

 Vector  152  Occ=0.000000D+00  E= 1.623050D+00  Symmetry=a"

 Vector  153  Occ=0.000000D+00  E= 1.625437D+00  Symmetry=a'

 Vector  154  Occ=0.000000D+00  E= 1.645213D+00  Symmetry=a'

 Vector  155  Occ=0.000000D+00  E= 1.669369D+00  Symmetry=a'

 Vector  156  Occ=0.000000D+00  E= 1.688489D+00  Symmetry=a'

 Vector  157  Occ=0.000000D+00  E= 1.688565D+00  Symmetry=a"

 Vector  158  Occ=0.000000D+00  E= 1.723740D+00  Symmetry=a"

 Vector  159  Occ=0.000000D+00  E= 1.725071D+00  Symmetry=a'

 Vector  160  Occ=0.000000D+00  E= 1.734729D+00  Symmetry=a'

 Vector  161  Occ=0.000000D+00  E= 1.766386D+00  Symmetry=a'

 Vector  162  Occ=0.000000D+00  E= 1.794280D+00  Symmetry=a'

 Vector  163  Occ=0.000000D+00  E= 1.800812D+00  Symmetry=a"

 Vector  164  Occ=0.000000D+00  E= 1.806610D+00  Symmetry=a'

 Vector  165  Occ=0.000000D+00  E= 1.852215D+00  Symmetry=a"

 Vector  166  Occ=0.000000D+00  E= 1.891931D+00  Symmetry=a'

 Vector  167  Occ=0.000000D+00  E= 1.915793D+00  Symmetry=a"

 Vector  168  Occ=0.000000D+00  E= 1.916389D+00  Symmetry=a'

 Vector  169  Occ=0.000000D+00  E= 1.921383D+00  Symmetry=a'

 Vector  170  Occ=0.000000D+00  E= 1.924096D+00  Symmetry=a"

 Vector  171  Occ=0.000000D+00  E= 1.966549D+00  Symmetry=a'

 Vector  172  Occ=0.000000D+00  E= 2.000338D+00  Symmetry=a'

 Vector  173  Occ=0.000000D+00  E= 2.004432D+00  Symmetry=a"

 Vector  174  Occ=0.000000D+00  E= 2.010425D+00  Symmetry=a"

 Vector  175  Occ=0.000000D+00  E= 2.035862D+00  Symmetry=a'

 Vector  176  Occ=0.000000D+00  E= 2.055678D+00  Symmetry=a"

 Vector  177  Occ=0.000000D+00  E= 2.056764D+00  Symmetry=a'

 Vector  178  Occ=0.000000D+00  E= 2.066599D+00  Symmetry=a"

 Vector  179  Occ=0.000000D+00  E= 2.075249D+00  Symmetry=a'

 Vector  180  Occ=0.000000D+00  E= 2.076423D+00  Symmetry=a"

 Vector  181  Occ=0.000000D+00  E= 2.099538D+00  Symmetry=a'

 Vector  182  Occ=0.000000D+00  E= 2.148153D+00  Symmetry=a"

 Vector  183  Occ=0.000000D+00  E= 2.188956D+00  Symmetry=a'

 Vector  184  Occ=0.000000D+00  E= 2.194013D+00  Symmetry=a"

 Vector  185  Occ=0.000000D+00  E= 2.204652D+00  Symmetry=a'

 Vector  186  Occ=0.000000D+00  E= 2.226476D+00  Symmetry=a'

 Vector  187  Occ=0.000000D+00  E= 2.249811D+00  Symmetry=a"

 Vector  188  Occ=0.000000D+00  E= 2.251742D+00  Symmetry=a'

 Vector  189  Occ=0.000000D+00  E= 2.313505D+00  Symmetry=a'

 Vector  190  Occ=0.000000D+00  E= 2.378408D+00  Symmetry=a"

 Vector  191  Occ=0.000000D+00  E= 2.396709D+00  Symmetry=a'

 Vector  192  Occ=0.000000D+00  E= 2.462987D+00  Symmetry=a'

 Vector  193  Occ=0.000000D+00  E= 2.488699D+00  Symmetry=a"

 Vector  194  Occ=0.000000D+00  E= 2.526516D+00  Symmetry=a"

 Vector  195  Occ=0.000000D+00  E= 2.535689D+00  Symmetry=a'

 Vector  196  Occ=0.000000D+00  E= 2.536551D+00  Symmetry=a"

 Vector  197  Occ=0.000000D+00  E= 2.559780D+00  Symmetry=a'

 Vector  198  Occ=0.000000D+00  E= 2.638925D+00  Symmetry=a'

 Vector  199  Occ=0.000000D+00  E= 2.684420D+00  Symmetry=a"

 Vector  200  Occ=0.000000D+00  E= 2.695120D+00  Symmetry=a"

 Vector  201  Occ=0.000000D+00  E= 2.708561D+00  Symmetry=a'

 Vector  202  Occ=0.000000D+00  E= 2.807261D+00  Symmetry=a'

 Vector  203  Occ=0.000000D+00  E= 2.950315D+00  Symmetry=a"

 Vector  204  Occ=0.000000D+00  E= 3.280870D+00  Symmetry=a'

 Vector  205  Occ=0.000000D+00  E= 3.881150D+00  Symmetry=a'

 Vector  206  Occ=0.000000D+00  E= 3.975701D+00  Symmetry=a'

 Vector  207  Occ=0.000000D+00  E= 4.002372D+00  Symmetry=a"

 Vector  208  Occ=0.000000D+00  E= 4.037631D+00  Symmetry=a'

 Vector  209  Occ=0.000000D+00  E= 4.105918D+00  Symmetry=a'

 Vector  210  Occ=0.000000D+00  E= 4.117522D+00  Symmetry=a"

 Vector  211  Occ=0.000000D+00  E= 4.134848D+00  Symmetry=a'

 Vector  212  Occ=0.000000D+00  E= 4.173461D+00  Symmetry=a'

 Vector  213  Occ=0.000000D+00  E= 4.220708D+00  Symmetry=a"

 Vector  214  Occ=0.000000D+00  E= 4.289674D+00  Symmetry=a'

 Vector  215  Occ=0.000000D+00  E= 4.335470D+00  Symmetry=a'

 Vector  216  Occ=0.000000D+00  E= 4.597940D+00  Symmetry=a'

     Multipole analysis of the density
     ---------------------------------

     L   x y z        total         alpha         beta         nuclear
     -   - - -        -----         -----         ----         -------
     0   0 0 0      1.000000    -45.000000    -45.000000     91.000000

     1   1 0 0      0.313911     -0.158250     -0.158250      0.630411
     1   0 1 0     -2.795607     -1.348837     -1.348837     -0.097933
     1   0 0 1      0.000000      0.000000      0.000000     -0.000000

     2   2 0 0    -50.983103   -109.603092   -109.603092    168.223081
     2   1 1 0      0.350701     -6.468644     -6.468644     13.287990
     2   1 0 1      0.000000      0.000000      0.000000      0.000000
     2   0 2 0    -20.638290  -1053.347454  -1053.347454   2086.056618
     2   0 1 1      0.000000      0.000000      0.000000      0.000000

         Total DFT energy =   -484.542135094955
@   13    -484.54213509 -2.2D-07  0.00005  0.00001  0.00012  0.00041   1604.8
@   13    -484.54213509 -2.2D-07  0.00005  0.00001  0.00012  0.00041   1604.8

 Output coordinates in angstroms (scale by  1.889725989 to convert to a.u.)

  No.       Tag          Charge          X              Y              Z
 ---- ---------------- ---------- -------------- -------------- --------------
    1 C                    6.0000    -0.48762220    -3.71607362     0.00000000
    2 N                    7.0000     0.12820138    -2.34216538     0.00000000
    3 C                    6.0000     0.98482677    -2.18388493     1.22676174
    4 C                    6.0000     0.98482677    -2.18388493    -1.22676174
    5 C                    6.0000    -1.03097777    -1.29566136     0.00000000
    6 C                    6.0000    -0.60593046     0.14247138     0.00000000
    7 C                    6.0000    -0.43172077     0.83977678     1.20632415
    8 C                    6.0000    -0.06411666     2.18250683     1.20274838
    9 C                    6.0000     0.12846359     2.87879589     0.00000000
   10 C                    6.0000     0.48864446     4.34305934     0.00000000
   11 C                    6.0000    -0.06411666     2.18250683    -1.20274838
   12 C                    6.0000    -0.43172077     0.83977678    -1.20632415
   13 H                    1.0000    -1.10372191    -3.82965439    -0.89327440
   14 H                    1.0000     0.30792884    -4.46299742     0.00000000
   15 H                    1.0000    -1.10372191    -3.82965439     0.89327440
   16 H                    1.0000     1.42016744    -1.18540967     1.22802842
   17 H                    1.0000     0.36247531    -2.32135173     2.11248851
   18 H                    1.0000     1.77069601    -2.94063600     1.20407014
   19 H                    1.0000     1.77069601    -2.94063600    -1.20407014
   20 H                    1.0000     0.36247531    -2.32135173    -2.11248851
   21 H                    1.0000     1.42016744    -1.18540967    -1.22802842
   22 H                    1.0000    -1.61885049    -1.54404557    -0.88734172
   23 H                    1.0000    -1.61885049    -1.54404557     0.88734172
   24 H                    1.0000    -0.60114310     0.33754157     2.15630829
   25 H                    1.0000     0.06258246     2.70287953     2.14815790
   26 H                    1.0000     1.06878860     4.61412229     0.88714440
   27 H                    1.0000     1.06878860     4.61412229    -0.88714440
   28 H                    1.0000    -0.41706611     4.96310500     0.00000000
   29 H                    1.0000     0.06258246     2.70287953    -2.14815790
   30 H                    1.0000    -0.60114310     0.33754157    -2.15630829

 Total times  cpu:     1638.3s     wall:     1638.3s
