============================== echo of input deck ==============================
echo
title 286_ESP_Calculation
start 286

geometry
	C	-1.5665070031134651 	-1.2275737040229124 	-0.9108953665799502
	N	-1.529844801991129  	-0.3360208390143736 	0.3214955214402575
	C	-2.593745304881057  	-0.8403213363160996 	1.3023407141932657
	C	-1.9004086739802664 	1.0824823352969948  	-0.08535789855242311
	C	-0.154879661232088  	-0.3966623135860674 	1.0473101347949447
	C	1.08670986411798    	0.049538126256258065	0.3009165589252956
	C	1.5466854580369136  	1.3830038742539525  	0.3596910705644371
	Cl	0.7628852103576865  	2.588145554282193   	1.3218455948575791
	C	2.687433828563639   	1.797734850039295   	-0.3369506161794324
	C	3.408838032663498   	0.882283577183337   	-1.0900776356169424
	Cl	4.807227911362936   	1.3907721280905945  	-1.9473470396322565
	C	3.011823286479075   	-0.446499429184169  	-1.1389680209206263
	C	1.8708512986035633  	-0.8596879161966322 	-0.44177587157392034
	Cl	1.5054217041343727  	-2.54897685865101   	-0.5139989960274911
	H	-1.3562171033571295 	-2.2548963463798386 	-0.6041568522906094
	H	-2.5691681586455006 	-1.1725511442852175 	-1.3471002965909726
	H	-0.8328365229851695 	-0.8625398147144161 	-1.6335807717745998
	H	-3.5688331704886647 	-0.8042770927852051 	0.8070982510402351
	H	-2.346650434312376  	-1.8685883806363783 	1.5826862735067426
	H	-2.5892192953023816 	-0.19038516728092683	2.182423877494055
	H	-1.1665522503692096 	1.4462588697553493  	-0.8084885529788555
	H	-2.8919768378173996 	1.0607759470014737  	-0.5489884025399642
	H	-1.9287470100417754 	1.706032689694053   	0.8113487070180254
	H	-0.04074030099772405	-1.4311462747609929 	1.3926925652143933
	H	-0.2741906904669563 	0.18394956367837678 	1.9698764071362833
	H	3.022521611198153   	2.8325782715702847  	-0.2819980409635668
	H	3.6001190144648194  	-1.1634291692882592 	-1.7100413139638393
end

charge 1

basis
	* library 6-31G*
end

dft
	xc b3lyp
	maxiter 2000
end
task dft optimize

esp
	recalculate
	range 0.2
	probe 0.1
	spacing 0.025
end
task esp
================================================================================

         Total DFT energy =    -1823.988058823774
@ Step       Energy      Delta E   Gmax     Grms     Xrms     Xmax   Walltime
@ ---- ---------------- -------- -------- -------- -------- -------- --------
@    0   -1823.98805882  0.0D+00  0.01041  0.00257  0.00000  0.00000    218.5
         Total DFT energy =    -1823.990308805726
         Total DFT energy =    -1823.990374225647
@    1   -1823.99037423 -2.3D-03  0.00633  0.00092  0.04932  0.11196    456.7
         Total DFT energy =    -1823.990841163453
         Total DFT energy =    -1823.990846022863
@    2   -1823.99084602 -4.7D-04  0.00181  0.00049  0.03029  0.06598    673.0
         Total DFT energy =    -1823.990985071706
         Total DFT energy =    -1823.990988355960
@    3   -1823.99098836 -1.4D-04  0.00080  0.00019  0.01439  0.03418    892.0
         Total DFT energy =    -1823.991015374200
         Total DFT energy =    -1823.991025209363
@    4   -1823.99102521 -3.7D-05  0.00043  0.00009  0.00356  0.01266   1077.0
         Total DFT energy =    -1823.991032414792
         Total DFT energy =    -1823.991034814473
@    5   -1823.99103481 -9.6D-06  0.00022  0.00006  0.00341  0.00944   1257.3
         Total DFT energy =    -1823.991038981363
         Total DFT energy =  -1823.991038981363
@    6   -1823.99103898 -4.2D-06  0.00027  0.00005  0.00169  0.00435   1372.1
         Total DFT energy =    -1823.991043190725
         Total DFT energy =  -1823.991043190725
@    7   -1823.99104319 -4.2D-06  0.00015  0.00003  0.00370  0.00989   1488.2
         Total DFT energy =    -1823.991044041362
         Total DFT energy =  -1823.991044041362
@    8   -1823.99104404 -8.5D-07  0.00008  0.00002  0.00119  0.00404   1606.6
         Total DFT energy =    -1823.991045291912
         Total DFT energy =  -1823.991045291912
@    9   -1823.99104529 -1.3D-06  0.00008  0.00002  0.00177  0.00698   1735.2
         Total DFT energy =    -1823.991045808650
         Total DFT energy =  -1823.991045808650
@   10   -1823.99104581 -5.2D-07  0.00010  0.00002  0.00102  0.00456   1858.4
         Total DFT energy =    -1823.991046338430
         Total DFT energy =  -1823.991046338430
@   11   -1823.99104634 -5.3D-07  0.00008  0.00002  0.00132  0.00564   1983.7
         Total DFT energy =    -1823.991046655847
         Total DFT energy =  -1823.991046655847
@   12   -1823.99104666 -3.2D-07  0.00005  0.00001  0.00056  0.00194   2098.0
         Total DFT energy =    -1823.991046426558

                       DFT Final Molecular Orbital Analysis
                       ------------------------------------

 Vector    1  Occ=2.000000D+00  E=-1.016923D+02  Symmetry=a'

 Vector  169  Occ=0.000000D+00  E= 1.088944D+00  Symmetry=a"

 Vector  170  Occ=0.000000D+00  E= 1.129734D+00  Symmetry=a'

 Vector  171  Occ=0.000000D+00  E= 1.153532D+00  Symmetry=a'

 Vector  172  Occ=0.000000D+00  E= 1.208240D+00  Symmetry=a"

 Vector  173  Occ=0.000000D+00  E= 1.238324D+00  Symmetry=a'

 Vector  174  Occ=0.000000D+00  E= 1.255845D+00  Symmetry=a"

 Vector  175  Occ=0.000000D+00  E= 1.286346D+00  Symmetry=a"

 Vector  176  Occ=0.000000D+00  E= 1.299246D+00  Symmetry=a'

 Vector  177  Occ=0.000000D+00  E= 1.324786D+00  Symmetry=a"

 Vector  178  Occ=0.000000D+00  E= 1.329061D+00  Symmetry=a"

 Vector  179  Occ=0.000000D+00  E= 1.332105D+00  Symmetry=a'

 Vector  180  Occ=0.000000D+00  E= 1.341659D+00  Symmetry=a'

 Vector  181  Occ=0.000000D+00  E= 1.370281D+00  Symmetry=a'

 Vector  182  Occ=0.000000D+00  E= 1.371312D+00  Symmetry=a"

 Vector  183  Occ=0.000000D+00  E= 1.420919D+00  Symmetry=a'

 Vector  184  Occ=0.000000D+00  E= 1.433143D+00  Symmetry=a"

 Vector  185  Occ=0.000000D+00  E= 1.464654D+00  Symmetry=a'

 Vector  186  Occ=0.000000D+00  E= 1.536000D+00  Symmetry=a"

 Vector  187  Occ=0.000000D+00  E= 1.582038D+00  Symmetry=a'

 Vector  188  Occ=0.000000D+00  E= 1.624076D+00  Symmetry=a'

 Vector  189  Occ=0.000000D+00  E= 1.649029D+00  Symmetry=a"

 Vector  190  Occ=0.000000D+00  E= 1.652679D+00  Symmetry=a'

 Vector  191  Occ=0.000000D+00  E= 1.654093D+00  Symmetry=a"

 Vector  192  Occ=0.000000D+00  E= 1.677113D+00  Symmetry=a'

 Vector  193  Occ=0.000000D+00  E= 1.704921D+00  Symmetry=a'

 Vector  194  Occ=0.000000D+00  E= 1.718094D+00  Symmetry=a"

 Vector  195  Occ=0.000000D+00  E= 1.720283D+00  Symmetry=a'

 Vector  196  Occ=0.000000D+00  E= 1.763016D+00  Symmetry=a'

 Vector  197  Occ=0.000000D+00  E= 1.799217D+00  Symmetry=a"

 Vector  198  Occ=0.000000D+00  E= 1.811888D+00  Symmetry=a'

 Vector  199  Occ=0.000000D+00  E= 1.860192D+00  Symmetry=a'

 Vector  200  Occ=0.000000D+00  E= 1.904170D+00  Symmetry=a"

 Vector  201  Occ=0.000000D+00  E= 1.912325D+00  Symmetry=a'

 Vector  202  Occ=0.000000D+00  E= 1.923582D+00  Symmetry=a'

 Vector  203  Occ=0.000000D+00  E= 1.924857D+00  Symmetry=a"

 Vector  204  Occ=0.000000D+00  E= 1.964870D+00  Symmetry=a"

 Vector  205  Occ=0.000000D+00  E= 1.978345D+00  Symmetry=a'

 Vector  206  Occ=0.000000D+00  E= 1.981555D+00  Symmetry=a'

 Vector  207  Occ=0.000000D+00  E= 1.994621D+00  Symmetry=a"

 Vector  208  Occ=0.000000D+00  E= 2.020544D+00  Symmetry=a'

 Vector  209  Occ=0.000000D+00  E= 2.021768D+00  Symmetry=a"

 Vector  210  Occ=0.000000D+00  E= 2.057320D+00  Symmetry=a'

 Vector  211  Occ=0.000000D+00  E= 2.062515D+00  Symmetry=a"

 Vector  212  Occ=0.000000D+00  E= 2.064612D+00  Symmetry=a'

 Vector  213  Occ=0.000000D+00  E= 2.076258D+00  Symmetry=a"

 Vector  214  Occ=0.000000D+00  E= 2.080796D+00  Symmetry=a'

 Vector  215  Occ=0.000000D+00  E= 2.140226D+00  Symmetry=a"

 Vector  216  Occ=0.000000D+00  E= 2.142517D+00  Symmetry=a'

 Vector  217  Occ=0.000000D+00  E= 2.176639D+00  Symmetry=a"

 Vector  218  Occ=0.000000D+00  E= 2.186376D+00  Symmetry=a'

 Vector  219  Occ=0.000000D+00  E= 2.246156D+00  Symmetry=a'

 Vector  220  Occ=0.000000D+00  E= 2.357603D+00  Symmetry=a'

 Vector  221  Occ=0.000000D+00  E= 2.359699D+00  Symmetry=a"

 Vector  222  Occ=0.000000D+00  E= 2.427684D+00  Symmetry=a"

 Vector  223  Occ=0.000000D+00  E= 2.465146D+00  Symmetry=a'

 Vector  224  Occ=0.000000D+00  E= 2.474989D+00  Symmetry=a"

 Vector  225  Occ=0.000000D+00  E= 2.511824D+00  Symmetry=a'

 Vector  226  Occ=0.000000D+00  E= 2.522696D+00  Symmetry=a"

 Vector  227  Occ=0.000000D+00  E= 2.552320D+00  Symmetry=a'

 Vector  228  Occ=0.000000D+00  E= 2.566633D+00  Symmetry=a'

 Vector  229  Occ=0.000000D+00  E= 2.583259D+00  Symmetry=a"

 Vector  230  Occ=0.000000D+00  E= 2.617922D+00  Symmetry=a'

 Vector  231  Occ=0.000000D+00  E= 2.643904D+00  Symmetry=a"

 Vector  232  Occ=0.000000D+00  E= 2.776807D+00  Symmetry=a'

 Vector  233  Occ=0.000000D+00  E= 2.896103D+00  Symmetry=a"

 Vector  234  Occ=0.000000D+00  E= 3.153805D+00  Symmetry=a'

 Vector  235  Occ=0.000000D+00  E= 3.868144D+00  Symmetry=a'

 Vector  236  Occ=0.000000D+00  E= 3.907810D+00  Symmetry=a'

 Vector  237  Occ=0.000000D+00  E= 3.929555D+00  Symmetry=a"

 Vector  238  Occ=0.000000D+00  E= 3.937831D+00  Symmetry=a'

 Vector  239  Occ=0.000000D+00  E= 4.098836D+00  Symmetry=a"

 Vector  240  Occ=0.000000D+00  E= 4.102170D+00  Symmetry=a'

 Vector  241  Occ=0.000000D+00  E= 4.120827D+00  Symmetry=a"

 Vector  242  Occ=0.000000D+00  E= 4.129219D+00  Symmetry=a'

 Vector  243  Occ=0.000000D+00  E= 4.151340D+00  Symmetry=a'

 Vector  244  Occ=0.000000D+00  E= 4.197195D+00  Symmetry=a'

 Vector  245  Occ=0.000000D+00  E= 4.232584D+00  Symmetry=a"

 Vector  246  Occ=0.000000D+00  E= 4.279319D+00  Symmetry=a'

 Vector  247  Occ=0.000000D+00  E= 4.305369D+00  Symmetry=a'

 Vector  248  Occ=0.000000D+00  E= 4.533710D+00  Symmetry=a'

     Multipole analysis of the density
     ---------------------------------

     L   x y z        total         alpha         beta         nuclear
     -   - - -        -----         -----         ----         -------
     0   0 0 0      1.000000    -65.000000    -65.000000    131.000000

     1   1 0 0     -0.734193     -0.502634     -0.502634      0.271076
     1   0 1 0      3.735479      0.516337      0.516337      2.702804
     1   0 0 1     -0.000000     -0.000000     -0.000000     -0.000000

     2   2 0 0    -71.693040   -149.220024   -149.220024    226.747009
     2   1 1 0     -3.092006      7.770120      7.770120    -18.632246
     2   1 0 1      0.000000      0.000000      0.000000      0.000000
     2   0 2 0    -40.741880  -1375.437746  -1375.437746   2710.133611
     2   0 1 1      0.000000      0.000000      0.000000      0.000000

         Total DFT energy =  -1823.991046426558
@   13   -1823.99104643  2.3D-07  0.00005  0.00001  0.00053  0.00146   2218.7
@   13   -1823.99104643  2.3D-07  0.00005  0.00001  0.00053  0.00146   2218.7

 Output coordinates in angstroms (scale by  1.889725989 to convert to a.u.)

  No.       Tag          Charge          X              Y              Z
 ---- ---------------- ---------- -------------- -------------- --------------
    1 C                    6.0000    -1.26752858     2.53124460    -1.22256330
    2 N                    7.0000    -0.39932569     2.68072651     0.00000000
    3 C                    6.0000     0.20949392     4.06093322     0.00000000
    4 C                    6.0000    -1.26752858     2.53124460     1.22256330
    5 C                    6.0000     0.77934155     1.66229425     0.00000000
    6 C                    6.0000     0.41899372     0.20246458     0.00000000
    7 C                    6.0000     0.30906889    -0.54349924     1.19682491
    8 Cl                  17.0000     0.59518365     0.20696023     2.75874406
    9 C                    6.0000     0.02310226    -1.90460504     1.21288493
   10 C                    6.0000    -0.13582643    -2.57429907     0.00000000
   11 Cl                  17.0000    -0.50140243    -4.26943288     0.00000000
   12 C                    6.0000     0.02310226    -1.90460504    -1.21288493
   13 C                    6.0000     0.30906889    -0.54349924    -1.19682491
   14 Cl                  17.0000     0.59518365     0.20696023    -2.75874406
   15 H                    1.0000    -0.66156884     2.68179147    -2.11430628
   16 H                    1.0000    -2.05947731     3.28023563    -1.17275497
   17 H                    1.0000    -1.70030497     1.53153083    -1.22998588
   18 H                    1.0000    -0.59331169     4.79971849     0.00000000
   19 H                    1.0000     0.82335711     4.17927447    -0.89407905
   20 H                    1.0000     0.82335711     4.17927447     0.89407905
   21 H                    1.0000    -1.70030497     1.53153083     1.22998588
   22 H                    1.0000    -2.05947731     3.28023563     1.17275497
   23 H                    1.0000    -0.66156884     2.68179147     2.11430628
   24 H                    1.0000     1.36066698     1.91565428    -0.88694266
   25 H                    1.0000     1.36066698     1.91565428     0.88694266
   26 H                    1.0000    -0.05671865    -2.43692289     2.15282238
   27 H                    1.0000    -0.05671865    -2.43692289    -2.15282238

 Total times  cpu:     2247.5s     wall:     2247.5s
