============================== echo of input deck ==============================
echo
title 205_ESP_Calculation
start 205

geometry
	C	-3.5333581630782653 	0.7487452686291461  	1.5701560700696442
	N	-2.920624196169397  	0.1142839569272014  	0.31501664210153557
	C	-3.4262844996292623 	0.8834171490614456  	-0.900101497371521
	C	-3.390243973456834  	-1.333939893701945  	0.2383471583762544
	C	-1.3845280214322906 	0.20704850053403295 	0.44706534298134043
	C	-0.6111469107770137 	-0.3885925018282419 	-0.7375384559246639
	C	0.8797015658740488  	-0.2566629761833356 	-0.5277535007042582
	C	1.562119014174925   	0.885784330835002   	-0.9687503610041693
	C	2.9449790815961068  	1.0288812587321599  	-0.7625019853724292
	C	3.655794390159753   	2.282109792513076   	-1.227060256783967
	F	3.484248698812312   	3.310706816518659   	-0.3532623002808301
	F	3.190045942433209   	2.72795593085993    	-2.426086279177214
	F	4.996710552352573   	2.121862824282953   	-1.374337894016103
	C	3.6417113330346833  	0.012809158030797022	-0.09029525175373526
	C	2.9802540194259866  	-1.1430263539128307 	0.35266928429987365
	C	3.729105017905304   	-2.2321025661231735 	1.0907692263560196
	F	3.5723718615195668  	-2.1257368666603678 	2.4380200161905345
	F	5.067312464153799   	-2.223864785416769  	0.8571939712426763
	F	3.2909511273964283  	-3.4779388081941263 	0.7601921348691244
	C	1.597015840190789   	-1.2628015893447269 	0.1344426707609822
	H	-4.623223290256673  	0.6911702878568283  	1.4925138076417224
	H	-3.1831097094842176 	0.19169589413526877 	2.4441928854217743
	H	-3.209121443906269  	1.7923240294401057  	1.6223938957092765
	H	-4.520188277497689  	0.8931423167140404  	-0.8722296495477444
	H	-3.085924985494224  	0.3772070390880221  	-1.8067262935036974
	H	-3.0326959821309134 	1.9027380805904257  	-0.8526230142604192
	H	-4.4838076174917045 	-1.3450927268323074 	0.2769459177237083
	H	-3.0510778540237053 	-1.7669477776935005 	-0.7058642587465277
	H	-2.9712225893881685 	-1.8789322981914323 	1.0889819766641076
	H	-1.1185670705047026 	-0.30795961513228853	1.3788356606971288
	H	-1.1442260832154332 	1.2708823365894624  	0.5682118120119415
	H	-0.8781087882833513 	0.11135795869132137 	-1.6751360358345473
	H	-0.8527658126423712 	-1.448414102241527  	-0.8743078962965086
	H	1.025399190480154   	1.6799737068532035  	-1.4894139144575054
	H	4.714702741114894   	0.12008940609970678 	0.08470181813896409
	H	1.0878024282381953  	-2.1621731815260157 	0.48333855377979873
end

charge 1

basis
	* library 6-31G*
end

driver
	maxiter 100
	xyz 205
end

dft
	xc b3lyp
	maxiter 2000
end
task dft optimize

esp
	recalculate
	range 0.2
	probe 0.1
	spacing 0.025
end
task esp
================================================================================

         Total DFT energy =    -1158.593031618232
@ Step       Energy      Delta E   Gmax     Grms     Xrms     Xmax   Walltime
@ ---- ---------------- -------- -------- -------- -------- -------- --------
@    0   -1158.59303162  0.0D+00  0.01202  0.00308  0.00000  0.00000    286.7
         Total DFT energy =    -1158.597200806205
         Total DFT energy =  -1158.597200806205
@    1   -1158.59720081 -4.2D-03  0.00112  0.00028  0.07584  0.21468    507.4
         Total DFT energy =    -1158.597281499625
         Total DFT energy =    -1158.597285282904
@    2   -1158.59728528 -8.4D-05  0.00026  0.00007  0.01822  0.07586    799.1
         Total DFT energy =    -1158.597290866147
         Total DFT energy =    -1158.597291219085
@    3   -1158.59729122 -5.9D-06  0.00022  0.00004  0.01395  0.05413   1069.2
         Total DFT energy =    -1158.597293756741
         Total DFT energy =  -1158.597293756741
@    4   -1158.59729376 -2.5D-06  0.00017  0.00003  0.00399  0.01657   1247.5
         Total DFT energy =    -1158.597294790361
         Total DFT energy =  -1158.597294790361
@    5   -1158.59729479 -1.0D-06  0.00007  0.00001  0.00178  0.00513   1477.2
         Total DFT energy =    -1158.597295062086
         Total DFT energy =  -1158.597295062086
@    6   -1158.59729506 -2.7D-07  0.00004  0.00001  0.00138  0.00555   1643.0
         Total DFT energy =    -1158.597295114968

                       DFT Final Molecular Orbital Analysis
                       ------------------------------------

 Vector    1  Occ=2.000000D+00  E=-2.481554D+01  Symmetry=a"

 Vector  253  Occ=0.000000D+00  E= 1.931648D+00  Symmetry=a'

 Vector  254  Occ=0.000000D+00  E= 1.939090D+00  Symmetry=a"

 Vector  255  Occ=0.000000D+00  E= 1.949442D+00  Symmetry=a'

 Vector  256  Occ=0.000000D+00  E= 1.966523D+00  Symmetry=a"

 Vector  257  Occ=0.000000D+00  E= 1.970015D+00  Symmetry=a'

 Vector  258  Occ=0.000000D+00  E= 1.975906D+00  Symmetry=a"

 Vector  259  Occ=0.000000D+00  E= 1.976968D+00  Symmetry=a'

 Vector  260  Occ=0.000000D+00  E= 1.997581D+00  Symmetry=a"

 Vector  261  Occ=0.000000D+00  E= 2.009119D+00  Symmetry=a'

 Vector  262  Occ=0.000000D+00  E= 2.034685D+00  Symmetry=a'

 Vector  263  Occ=0.000000D+00  E= 2.039806D+00  Symmetry=a"

 Vector  264  Occ=0.000000D+00  E= 2.040029D+00  Symmetry=a'

 Vector  265  Occ=0.000000D+00  E= 2.042598D+00  Symmetry=a'

 Vector  266  Occ=0.000000D+00  E= 2.043558D+00  Symmetry=a"

 Vector  267  Occ=0.000000D+00  E= 2.046423D+00  Symmetry=a"

 Vector  268  Occ=0.000000D+00  E= 2.053679D+00  Symmetry=a"

 Vector  269  Occ=0.000000D+00  E= 2.057355D+00  Symmetry=a'

 Vector  270  Occ=0.000000D+00  E= 2.063014D+00  Symmetry=a'

 Vector  271  Occ=0.000000D+00  E= 2.072320D+00  Symmetry=a'

 Vector  272  Occ=0.000000D+00  E= 2.075452D+00  Symmetry=a"

 Vector  273  Occ=0.000000D+00  E= 2.117300D+00  Symmetry=a"

 Vector  274  Occ=0.000000D+00  E= 2.130720D+00  Symmetry=a'

 Vector  275  Occ=0.000000D+00  E= 2.160839D+00  Symmetry=a"

 Vector  276  Occ=0.000000D+00  E= 2.173231D+00  Symmetry=a'

 Vector  277  Occ=0.000000D+00  E= 2.213707D+00  Symmetry=a"

 Vector  278  Occ=0.000000D+00  E= 2.237288D+00  Symmetry=a'

 Vector  279  Occ=0.000000D+00  E= 2.267470D+00  Symmetry=a"

 Vector  280  Occ=0.000000D+00  E= 2.286788D+00  Symmetry=a'

 Vector  281  Occ=0.000000D+00  E= 2.310779D+00  Symmetry=a"

 Vector  282  Occ=0.000000D+00  E= 2.310980D+00  Symmetry=a'

 Vector  283  Occ=0.000000D+00  E= 2.341120D+00  Symmetry=a'

 Vector  284  Occ=0.000000D+00  E= 2.352694D+00  Symmetry=a"

 Vector  285  Occ=0.000000D+00  E= 2.389456D+00  Symmetry=a"

 Vector  286  Occ=0.000000D+00  E= 2.407665D+00  Symmetry=a'

 Vector  287  Occ=0.000000D+00  E= 2.484895D+00  Symmetry=a'

 Vector  288  Occ=0.000000D+00  E= 2.487164D+00  Symmetry=a"

 Vector  289  Occ=0.000000D+00  E= 2.508380D+00  Symmetry=a"

 Vector  290  Occ=0.000000D+00  E= 2.523229D+00  Symmetry=a"

 Vector  291  Occ=0.000000D+00  E= 2.525871D+00  Symmetry=a'

 Vector  292  Occ=0.000000D+00  E= 2.530500D+00  Symmetry=a'

 Vector  293  Occ=0.000000D+00  E= 2.594349D+00  Symmetry=a'

 Vector  294  Occ=0.000000D+00  E= 2.599263D+00  Symmetry=a"

 Vector  295  Occ=0.000000D+00  E= 2.623527D+00  Symmetry=a'

 Vector  296  Occ=0.000000D+00  E= 2.657472D+00  Symmetry=a'

 Vector  297  Occ=0.000000D+00  E= 2.670853D+00  Symmetry=a"

 Vector  298  Occ=0.000000D+00  E= 2.672086D+00  Symmetry=a'

 Vector  299  Occ=0.000000D+00  E= 2.678269D+00  Symmetry=a"

 Vector  300  Occ=0.000000D+00  E= 2.744751D+00  Symmetry=a'

 Vector  301  Occ=0.000000D+00  E= 2.758610D+00  Symmetry=a"

 Vector  302  Occ=0.000000D+00  E= 2.815372D+00  Symmetry=a"

 Vector  303  Occ=0.000000D+00  E= 2.866586D+00  Symmetry=a'

 Vector  304  Occ=0.000000D+00  E= 2.931120D+00  Symmetry=a'

 Vector  305  Occ=0.000000D+00  E= 2.947299D+00  Symmetry=a'

 Vector  306  Occ=0.000000D+00  E= 2.949660D+00  Symmetry=a"

 Vector  307  Occ=0.000000D+00  E= 2.952261D+00  Symmetry=a'

 Vector  308  Occ=0.000000D+00  E= 2.957155D+00  Symmetry=a"

 Vector  309  Occ=0.000000D+00  E= 2.991888D+00  Symmetry=a'

 Vector  310  Occ=0.000000D+00  E= 3.007579D+00  Symmetry=a"

 Vector  311  Occ=0.000000D+00  E= 3.037594D+00  Symmetry=a"

 Vector  312  Occ=0.000000D+00  E= 3.293537D+00  Symmetry=a'

 Vector  313  Occ=0.000000D+00  E= 3.887420D+00  Symmetry=a'

 Vector  314  Occ=0.000000D+00  E= 3.969971D+00  Symmetry=a'

 Vector  315  Occ=0.000000D+00  E= 3.971167D+00  Symmetry=a"

 Vector  316  Occ=0.000000D+00  E= 4.026033D+00  Symmetry=a'

 Vector  317  Occ=0.000000D+00  E= 4.080028D+00  Symmetry=a'

 Vector  318  Occ=0.000000D+00  E= 4.093842D+00  Symmetry=a"

 Vector  319  Occ=0.000000D+00  E= 4.097735D+00  Symmetry=a'

 Vector  320  Occ=0.000000D+00  E= 4.121144D+00  Symmetry=a"

 Vector  321  Occ=0.000000D+00  E= 4.165070D+00  Symmetry=a'

 Vector  322  Occ=0.000000D+00  E= 4.188227D+00  Symmetry=a'

 Vector  323  Occ=0.000000D+00  E= 4.324779D+00  Symmetry=a'

 Vector  324  Occ=0.000000D+00  E= 4.344154D+00  Symmetry=a"

 Vector  325  Occ=0.000000D+00  E= 4.363933D+00  Symmetry=a'

 Vector  326  Occ=0.000000D+00  E= 4.397817D+00  Symmetry=a'

 Vector  327  Occ=0.000000D+00  E= 4.427009D+00  Symmetry=a"

 Vector  328  Occ=0.000000D+00  E= 4.477800D+00  Symmetry=a'

 Vector  329  Occ=0.000000D+00  E= 4.616152D+00  Symmetry=a"

 Vector  330  Occ=0.000000D+00  E= 4.681458D+00  Symmetry=a'

 Vector  331  Occ=0.000000D+00  E= 5.357216D+00  Symmetry=a'

 Vector  332  Occ=0.000000D+00  E= 5.448592D+00  Symmetry=a"

     Multipole analysis of the density
     ---------------------------------

     L   x y z        total         alpha         beta         nuclear
     -   - - -        -----         -----         ----         -------
     0   0 0 0      1.000000    -77.000000    -77.000000    155.000000

     1   1 0 0      0.031463     -2.183556     -2.183556      4.398574
     1   0 1 0      7.946788      1.486503      1.486503      4.973783
     1   0 0 1     -0.000000     -0.000000     -0.000000     -0.000000

     2   2 0 0    -79.134662   -214.240015   -214.240015    349.345367
     2   1 1 0      2.384857     16.126049     16.126049    -29.867240
     2   1 0 1     -0.000000     -0.000000     -0.000000      0.000000
     2   0 2 0    -13.375074  -2443.175695  -2443.175695   4872.976316
     2   0 1 1     -0.000000     -0.000000     -0.000000      0.000000

         Total DFT energy =  -1158.597295114968
@    7   -1158.59729511 -5.3D-08  0.00002  0.00000  0.00034  0.00093   1797.0
@    7   -1158.59729511 -5.3D-08  0.00002  0.00000  0.00034  0.00093   1797.0

 Output coordinates in angstroms (scale by  1.889725989 to convert to a.u.)

  No.       Tag          Charge          X              Y              Z
 ---- ---------------- ---------- -------------- -------------- --------------
    1 C                    6.0000     1.57579954     4.89519447     0.00000000
    2 N                    7.0000     0.18798051     4.29937542     0.00000000
    3 C                    6.0000    -0.54247629     4.77238499     1.23142358
    4 C                    6.0000    -0.54247629     4.77238499    -1.23142358
    5 C                    6.0000     0.33391005     2.76943328     0.00000000
    6 C                    6.0000    -0.96860513     1.95756289     0.00000000
    7 C                    6.0000    -0.62154260     0.47718382     0.00000000
    8 C                    6.0000    -0.44884718    -0.20997437     1.20545883
    9 C                    6.0000    -0.10695815    -1.56292134     1.20390514
   10 C                    6.0000     0.12440931    -2.27108660     2.51906198
   11 F                    9.0000     1.39761461    -2.10028409     2.93572255
   12 F                    9.0000    -0.68062432    -1.77984289     3.48488312
   13 F                    9.0000    -0.09871443    -3.59182504     2.41804917
   14 C                    6.0000     0.06593928    -2.24545692     0.00000000
   15 C                    6.0000    -0.10695815    -1.56292134    -1.20390514
   16 C                    6.0000     0.12440931    -2.27108660    -2.51906198
   17 F                    9.0000     1.39761461    -2.10028409    -2.93572255
   18 F                    9.0000    -0.09871443    -3.59182504    -2.41804917
   19 F                    9.0000    -0.68062432    -1.77984289    -3.48488312
   20 C                    6.0000    -0.44884718    -0.20997437    -1.20545883
   21 H                    1.0000     1.49366843     5.98316338     0.00000000
   22 H                    1.0000     2.10466480     4.56093718    -0.89365965
   23 H                    1.0000     2.10466480     4.56093718     0.89365965
   24 H                    1.0000    -0.55144443     5.86342418     1.23395721
   25 H                    1.0000    -1.56495563     4.39739048     1.21443173
   26 H                    1.0000    -0.02041611     4.40294204     2.11555608
   27 H                    1.0000    -0.55144443     5.86342418    -1.23395721
   28 H                    1.0000    -1.56495563     4.39739048    -1.21443173
   29 H                    1.0000    -0.02041611     4.40294204    -2.11555608
   30 H                    1.0000     0.93067493     2.53135268    -0.88453188
   31 H                    1.0000     0.93067493     2.53135268     0.88453188
   32 H                    1.0000    -1.57111221     2.19009859     0.88388362
   33 H                    1.0000    -1.57111221     2.19009859    -0.88388362
   34 H                    1.0000    -0.60310534     0.29610577     2.15431619
   35 H                    1.0000     0.31397699    -3.30048131     0.00000000
   36 H                    1.0000    -0.60310534     0.29610577    -2.15431619

 Total times  cpu:     1852.9s     wall:     1852.9s
